TITLE = "AGARD Report No. 702: NACA0012 Oscillatory and transient pitching by R. H. Landon"
VARIABLES = "alpha" \
"Cn" \
"Cm" \
ZONE T = "Coefficients" \ 
I = 8 \
J = 1 \
F = POINT \ 
 1.09   0.1008  -0.0074
 2.34   0.3436  -0.0056
 2.01   0.4001  -0.0013
 0.52   0.2592   0.0126
-1.25  -0.0021   0.0138
-2.41  -0.2425   0.0044
-2.00  -0.2911  -0.0017
-0.54  -0.1525  -0.0108