TITLE = "CFFC: 2D Structured Curvilinear Grid Block (Cell Locations)"
VARIABLES = "x" \ 
"y" 
ZONE T =  "Block Number = 0" \ 
I = 3 \ 
J = 10 \ 
F = POINT 
  4.25919845475870e+00 -1.42959282097153e+00
  4.25896275249820e+00 -1.42982852323182e+00
  4.25872705023772e+00 -1.43006422549213e+00
  4.29113547985921e+00 -1.46152984609743e+00
  4.29089977759873e+00 -1.46176554835774e+00
  4.29066407533823e+00 -1.46200125061804e+00
  4.32307250495974e+00 -1.49346687122334e+00
  4.32283680269925e+00 -1.49370257348365e+00
  4.32260110043876e+00 -1.49393827574395e+00
  4.35500953006026e+00 -1.52540389634926e+00
  4.35477382779977e+00 -1.52563959860955e+00
  4.35453812553929e+00 -1.52587530086986e+00
  4.38694655516079e+00 -1.55734092147517e+00
  4.38671085290030e+00 -1.55757662373547e+00
  4.38647515063980e+00 -1.55781232599576e+00
  4.41888358026130e+00 -1.58927794660107e+00
  4.41864787800082e+00 -1.58951364886138e+00
  4.41841217574033e+00 -1.58974935112168e+00
  4.45082060536183e+00 -1.62121497172698e+00
  4.45058490310134e+00 -1.62145067398728e+00
  4.45034920084086e+00 -1.62168637624759e+00
  4.48275763046236e+00 -1.65315199685290e+00
  4.48252192820187e+00 -1.65338769911320e+00
  4.48228622594137e+00 -1.65362340137349e+00
  4.51469465556287e+00 -1.68508902197880e+00
  4.51445895330239e+00 -1.68532472423911e+00
  4.51422325104190e+00 -1.68556042649941e+00
  4.54663168066340e+00 -1.71702604710471e+00
  4.54639597840291e+00 -1.71726174936501e+00
  4.54616027614243e+00 -1.71749745162532e+00
ZONE T =  "Block Number = 1" \ 
I = 3 \ 
J = 10 \ 
F = POINT 
  4.25990556154017e+00 -1.42888571419063e+00
  4.25966985927967e+00 -1.42912141645092e+00
  4.25943415701918e+00 -1.42935711871122e+00
  4.29184258664068e+00 -1.46082273931652e+00
  4.29160688438020e+00 -1.46105844157684e+00
  4.29137118211971e+00 -1.46129414383713e+00
  4.32377961174121e+00 -1.49275976444244e+00
  4.32354390948072e+00 -1.49299546670274e+00
  4.32330820722023e+00 -1.49323116896304e+00
  4.35571663684173e+00 -1.52469678956835e+00
  4.35548093458124e+00 -1.52493249182865e+00
  4.35524523232076e+00 -1.52516819408896e+00
  4.38765366194226e+00 -1.55663381469427e+00
  4.38741795968176e+00 -1.55686951695456e+00
  4.38718225742127e+00 -1.55710521921486e+00
  4.41959068704277e+00 -1.58857083982016e+00
  4.41935498478229e+00 -1.58880654208047e+00
  4.41911928252180e+00 -1.58904224434078e+00
  4.45152771214330e+00 -1.62050786494608e+00
  4.45129200988281e+00 -1.62074356720638e+00
  4.45105630762232e+00 -1.62097926946668e+00
  4.48346473724383e+00 -1.65244489007199e+00
  4.48322903498333e+00 -1.65268059233229e+00
  4.48299333272284e+00 -1.65291629459259e+00
  4.51540176234434e+00 -1.68438191519789e+00
  4.51516606008386e+00 -1.68461761745821e+00
  4.51493035782337e+00 -1.68485331971850e+00
  4.54733878744487e+00 -1.71631894032381e+00
  4.54710308518437e+00 -1.71655464258410e+00
  4.54686738292390e+00 -1.71679034484442e+00
ZONE T =  "Block Number = 2" \ 
I = 3 \ 
J = 10 \ 
F = POINT 
  4.26061266832162e+00 -1.42817860740971e+00
  4.26037696606114e+00 -1.42841430967002e+00
  4.26014126380064e+00 -1.42865001193031e+00
  4.29254969342215e+00 -1.46011563253562e+00
  4.29231399116166e+00 -1.46035133479592e+00
  4.29207828890118e+00 -1.46058703705623e+00
  4.32448671852267e+00 -1.49205265766153e+00
  4.32425101626219e+00 -1.49228835992184e+00
  4.32401531400170e+00 -1.49252406218214e+00
  4.35642374362320e+00 -1.52398968278745e+00
  4.35618804136271e+00 -1.52422538504775e+00
  4.35595233910222e+00 -1.52446108730805e+00
  4.38836076872372e+00 -1.55592670791335e+00
  4.38812506646323e+00 -1.55616241017365e+00
  4.38788936420274e+00 -1.55639811243396e+00
  4.42029779382425e+00 -1.58786373303927e+00
  4.42006209156375e+00 -1.58809943529956e+00
  4.41982638930327e+00 -1.58833513755987e+00
  4.45223481892477e+00 -1.61980075816517e+00
  4.45199911666428e+00 -1.62003646042548e+00
  4.45176341440379e+00 -1.62027216268578e+00
  4.48417184402529e+00 -1.65173778329108e+00
  4.48393614176481e+00 -1.65197348555139e+00
  4.48370043950431e+00 -1.65220918781168e+00
  4.51610886912582e+00 -1.68367480841700e+00
  4.51587316686532e+00 -1.68391051067729e+00
  4.51563746460484e+00 -1.68414621293760e+00
  4.54804589422633e+00 -1.71561183354290e+00
  4.54781019196585e+00 -1.71584753580321e+00
  4.54757448970535e+00 -1.71608323806350e+00
ZONE T =  "Block Number = 3" \ 
I = 3 \ 
J = 10 \ 
F = POINT 
  4.26131977510309e+00 -1.42747150062881e+00
  4.26108407284261e+00 -1.42770720288912e+00
  4.26084837058212e+00 -1.42794290514941e+00
  4.29325680020362e+00 -1.45940852575472e+00
  4.29302109794312e+00 -1.45964422801501e+00
  4.29278539568265e+00 -1.45987993027533e+00
  4.32519382530415e+00 -1.49134555088063e+00
  4.32495812304365e+00 -1.49158125314093e+00
  4.32472242078316e+00 -1.49181695540123e+00
  4.35713085040466e+00 -1.52328257600653e+00
  4.35689514814418e+00 -1.52351827826685e+00
  4.35665944588368e+00 -1.52375398052714e+00
  4.38906787550519e+00 -1.55521960113245e+00
  4.38883217324469e+00 -1.55545530339274e+00
  4.38859647098421e+00 -1.55569100565306e+00
  4.42100490060572e+00 -1.58715662625836e+00
  4.42076919834522e+00 -1.58739232851866e+00
  4.42053349608473e+00 -1.58762803077896e+00
  4.45294192570623e+00 -1.61909365138427e+00
  4.45270622344575e+00 -1.61932935364457e+00
  4.45247052118526e+00 -1.61956505590487e+00
  4.48487895080675e+00 -1.65103067651017e+00
  4.48464324854627e+00 -1.65126637877048e+00
  4.48440754628578e+00 -1.65150208103078e+00
  4.51681597590729e+00 -1.68296770163609e+00
  4.51658027364679e+00 -1.68320340389638e+00
  4.51634457138630e+00 -1.68343910615669e+00
  4.54875300100780e+00 -1.71490472676199e+00
  4.54851729874732e+00 -1.71514042902230e+00
  4.54828159648683e+00 -1.71537613128260e+00
ZONE T =  "Block Number = 4" \ 
I = 3 \ 
J = 10 \ 
F = POINT 
  4.26188546052827e+00 -1.42690581520408e+00
  4.26170632681030e+00 -1.42708494892191e+00
  4.26152719309233e+00 -1.42726408263975e+00
  4.29382248562879e+00 -1.45884284032999e+00
  4.29364335191082e+00 -1.45902197404782e+00
  4.29346421819285e+00 -1.45920110776565e+00
  4.32575951072931e+00 -1.49077986545590e+00
  4.32558037701134e+00 -1.49095899917373e+00
  4.32540124329337e+00 -1.49113813289156e+00
  4.35769653582983e+00 -1.52271689058181e+00
  4.35751740211187e+00 -1.52289602429964e+00
  4.35733826839390e+00 -1.52307515801748e+00
  4.38963356093037e+00 -1.55465391570773e+00
  4.38945442721239e+00 -1.55483304942555e+00
  4.38927529349442e+00 -1.55501218314338e+00
  4.42157058603089e+00 -1.58659094083363e+00
  4.42139145231291e+00 -1.58677007455146e+00
  4.42121231859494e+00 -1.58694920826929e+00
  4.45350761113140e+00 -1.61852796595954e+00
  4.45332847741344e+00 -1.61870709967737e+00
  4.45314934369547e+00 -1.61888623339521e+00
  4.48544463623194e+00 -1.65046499108546e+00
  4.48526550251396e+00 -1.65064412480328e+00
  4.48508636879599e+00 -1.65082325852111e+00
  4.51738166133245e+00 -1.68240201621136e+00
  4.51720252761448e+00 -1.68258114992919e+00
  4.51702339389650e+00 -1.68276028364701e+00
  4.54931868643297e+00 -1.71433904133727e+00
  4.54913955271501e+00 -1.71451817505510e+00
  4.54896041899704e+00 -1.71469730877294e+00
ZONE T =  "Block Number = 5" \ 
I = 3 \ 
J = 10 \ 
F = POINT 
  4.26287065607862e+00 -1.42592061965451e+00
  4.26251240460208e+00 -1.42627887113078e+00
  4.26215415312553e+00 -1.42663712260704e+00
  4.29480768117914e+00 -1.45785764478043e+00
  4.29444942970260e+00 -1.45821589625669e+00
  4.29409117822606e+00 -1.45857414773295e+00
  4.32674470627967e+00 -1.48979466990634e+00
  4.32638645480312e+00 -1.49015292138260e+00
  4.32602820332658e+00 -1.49051117285886e+00
  4.35868173138019e+00 -1.52173169503225e+00
  4.35832347990364e+00 -1.52208994650851e+00
  4.35796522842710e+00 -1.52244819798477e+00
  4.39061875648071e+00 -1.55366872015815e+00
  4.39026050500417e+00 -1.55402697163442e+00
  4.38990225352762e+00 -1.55438522311068e+00
  4.42255578158124e+00 -1.58560574528406e+00
  4.42219753010469e+00 -1.58596399676033e+00
  4.42183927862814e+00 -1.58632224823659e+00
  4.45449280668176e+00 -1.61754277040998e+00
  4.45413455520521e+00 -1.61790102188624e+00
  4.45377630372867e+00 -1.61825927336250e+00
  4.48642983178229e+00 -1.64947979553589e+00
  4.48607158030573e+00 -1.64983804701214e+00
  4.48571332882919e+00 -1.65019629848841e+00
  4.51836685688280e+00 -1.68141682066179e+00
  4.51800860540626e+00 -1.68177507213806e+00
  4.51765035392971e+00 -1.68213332361432e+00
  4.55030388198333e+00 -1.71335384578770e+00
  4.54994563050678e+00 -1.71371209726397e+00
  4.54958737903024e+00 -1.71407034874023e+00
ZONE T =  "Block Number = 6" \ 
I = 3 \ 
J = 10 \ 
F = POINT 
  4.26450663620574e+00 -1.42428463952869e+00
  4.26392389445020e+00 -1.42486738128377e+00
  4.26334115269466e+00 -1.42545012303885e+00
  4.29644366130627e+00 -1.45622166465460e+00
  4.29586091955073e+00 -1.45680440640968e+00
  4.29527817779519e+00 -1.45738714816476e+00
  4.32838068640679e+00 -1.48815868978051e+00
  4.32779794465125e+00 -1.48874143153559e+00
  4.32721520289571e+00 -1.48932417329067e+00
  4.36031771150731e+00 -1.52009571490642e+00
  4.35973496975178e+00 -1.52067845666150e+00
  4.35915222799624e+00 -1.52126119841658e+00
  4.39225473660784e+00 -1.55203274003233e+00
  4.39167199485230e+00 -1.55261548178741e+00
  4.39108925309676e+00 -1.55319822354249e+00
  4.42419176170836e+00 -1.58396976515824e+00
  4.42360901995282e+00 -1.58455250691332e+00
  4.42302627819728e+00 -1.58513524866840e+00
  4.45612878680889e+00 -1.61590679028415e+00
  4.45554604505334e+00 -1.61648953203923e+00
  4.45496330329780e+00 -1.61707227379430e+00
  4.48806581190941e+00 -1.64784381541006e+00
  4.48748307015387e+00 -1.64842655716514e+00
  4.48690032839833e+00 -1.64900929892021e+00
  4.52000283700993e+00 -1.67978084053597e+00
  4.51942009525439e+00 -1.68036358229105e+00
  4.51883735349885e+00 -1.68094632404612e+00
  4.55193986211045e+00 -1.71171786566188e+00
  4.55135712035491e+00 -1.71230060741696e+00
  4.55077437859937e+00 -1.71288334917203e+00
ZONE T =  "Block Number = 7" \ 
I = 3 \ 
J = 10 \ 
F = POINT 
  4.26710114766482e+00 -1.42169012807168e+00
  4.26617989143230e+00 -1.42261138430347e+00
  4.26525863519978e+00 -1.42353264053526e+00
  4.29903817276534e+00 -1.45362715319759e+00
  4.29811691653282e+00 -1.45454840942938e+00
  4.29719566030030e+00 -1.45546966566117e+00
  4.33097519786587e+00 -1.48556417832350e+00
  4.33005394163335e+00 -1.48648543455529e+00
  4.32913268540082e+00 -1.48740669078708e+00
  4.36291222296639e+00 -1.51750120344941e+00
  4.36199096673387e+00 -1.51842245968120e+00
  4.36106971050135e+00 -1.51934371591299e+00
  4.39484924806691e+00 -1.54943822857532e+00
  4.39392799183439e+00 -1.55035948480711e+00
  4.39300673560187e+00 -1.55128074103890e+00
  4.42678627316744e+00 -1.58137525370123e+00
  4.42586501693491e+00 -1.58229650993302e+00
  4.42494376070239e+00 -1.58321776616481e+00
  4.45872329826796e+00 -1.61331227882714e+00
  4.45780204203544e+00 -1.61423353505893e+00
  4.45688078580292e+00 -1.61515479129072e+00
  4.49066032336848e+00 -1.64524930395305e+00
  4.48973906713596e+00 -1.64617056018484e+00
  4.48881781090344e+00 -1.64709181641663e+00
  4.52259734846901e+00 -1.67718632907896e+00
  4.52167609223648e+00 -1.67810758531075e+00
  4.52075483600396e+00 -1.67902884154254e+00
  4.55453437356953e+00 -1.70912335420487e+00
  4.55361311733701e+00 -1.71004461043666e+00
  4.55269186110448e+00 -1.71096586666845e+00
ZONE T =  "Block Number = 8" \ 
I = 3 \ 
J = 10 \ 
F = POINT 
  4.27104359333674e+00 -1.41774768240290e+00
  4.26965086631447e+00 -1.41914040942405e+00
  4.26825813929221e+00 -1.42053313644521e+00
  4.30298061843726e+00 -1.44968470752881e+00
  4.30158789141500e+00 -1.45107743454996e+00
  4.30019516439274e+00 -1.45247016157112e+00
  4.33491764353778e+00 -1.48162173265472e+00
  4.33352491651552e+00 -1.48301445967587e+00
  4.33213218949326e+00 -1.48440718669703e+00
  4.36685466863830e+00 -1.51355875778063e+00
  4.36546194161604e+00 -1.51495148480178e+00
  4.36406921459378e+00 -1.51634421182294e+00
  4.39879169373883e+00 -1.54549578290654e+00
  4.39739896671657e+00 -1.54688850992769e+00
  4.39600623969431e+00 -1.54828123694885e+00
  4.43072871883935e+00 -1.57743280803245e+00
  4.42933599181709e+00 -1.57882553505360e+00
  4.42794326479483e+00 -1.58021826207476e+00
  4.46266574393987e+00 -1.60936983315836e+00
  4.46127301691761e+00 -1.61076256017951e+00
  4.45988028989535e+00 -1.61215528720067e+00
  4.49460276904040e+00 -1.64130685828427e+00
  4.49321004201814e+00 -1.64269958530542e+00
  4.49181731499587e+00 -1.64409231232658e+00
  4.52653979414092e+00 -1.67324388341018e+00
  4.52514706711866e+00 -1.67463661043133e+00
  4.52375434009640e+00 -1.67602933745249e+00
  4.55847681924144e+00 -1.70518090853609e+00
  4.55708409221918e+00 -1.70657363555724e+00
  4.55569136519692e+00 -1.70796636257839e+00
ZONE T =  "Block Number = 9" \ 
I = 3 \ 
J = 10 \ 
F = POINT 
  4.27666330986905e+00 -1.41212796587506e+00
  4.27469396866057e+00 -1.41409730708196e+00
  4.27272462745210e+00 -1.41606664828887e+00
  4.30860033496957e+00 -1.44406499100097e+00
  4.30663099376110e+00 -1.44603433220787e+00
  4.30466165255262e+00 -1.44800367341478e+00
  4.34053736007009e+00 -1.47600201612688e+00
  4.33856801886162e+00 -1.47797135733378e+00
  4.33659867765315e+00 -1.47994069854069e+00
  4.37247438517061e+00 -1.50793904125279e+00
  4.37050504396214e+00 -1.50990838245969e+00
  4.36853570275367e+00 -1.51187772366660e+00
  4.40441141027114e+00 -1.53987606637869e+00
  4.40244206906267e+00 -1.54184540758560e+00
  4.40047272785419e+00 -1.54381474879251e+00
  4.43634843537166e+00 -1.57181309150460e+00
  4.43437909416319e+00 -1.57378243271151e+00
  4.43240975295472e+00 -1.57575177391842e+00
  4.46828546047218e+00 -1.60375011663051e+00
  4.46631611926371e+00 -1.60571945783742e+00
  4.46434677805524e+00 -1.60768879904433e+00
  4.50022248557271e+00 -1.63568714175642e+00
  4.49825314436424e+00 -1.63765648296333e+00
  4.49628380315576e+00 -1.63962582417024e+00
  4.53215951067323e+00 -1.66762416688233e+00
  4.53019016946476e+00 -1.66959350808924e+00
  4.52822082825629e+00 -1.67156284929615e+00
  4.56409653577375e+00 -1.69956119200824e+00
  4.56212719456528e+00 -1.70153053321515e+00
  4.56015785335681e+00 -1.70349987442206e+00
ZONE T =  "Block Number = 10" \ 
I = 3 \ 
J = 10 \ 
F = POINT 
  4.28398977203477e+00 -1.40480150371515e+00
  4.28145305541018e+00 -1.40733822033773e+00
  4.27891633878558e+00 -1.40987493696031e+00
  4.31592679713530e+00 -1.43673852884106e+00
  4.31339008051070e+00 -1.43927524546364e+00
  4.31085336388610e+00 -1.44181196208622e+00
  4.34786382223582e+00 -1.46867555396697e+00
  4.34532710561122e+00 -1.47121227058955e+00
  4.34279038898663e+00 -1.47374898721213e+00
  4.37980084733634e+00 -1.50061257909288e+00
  4.37726413071175e+00 -1.50314929571546e+00
  4.37472741408715e+00 -1.50568601233804e+00
  4.41173787243687e+00 -1.53254960421879e+00
  4.40920115581227e+00 -1.53508632084137e+00
  4.40666443918767e+00 -1.53762303746395e+00
  4.44367489753739e+00 -1.56448662934470e+00
  4.44113818091279e+00 -1.56702334596728e+00
  4.43860146428820e+00 -1.56956006258986e+00
  4.47561192263791e+00 -1.59642365447061e+00
  4.47307520601332e+00 -1.59896037109319e+00
  4.47053848938872e+00 -1.60149708771577e+00
  4.50754894773844e+00 -1.62836067959652e+00
  4.50501223111384e+00 -1.63089739621910e+00
  4.50247551448924e+00 -1.63343411284168e+00
  4.53948597283896e+00 -1.66029770472243e+00
  4.53694925621436e+00 -1.66283442134501e+00
  4.53441253958977e+00 -1.66537113796759e+00
  4.57142299793948e+00 -1.69223472984834e+00
  4.56888628131489e+00 -1.69477144647092e+00
  4.56634956469029e+00 -1.69730816309350e+00
ZONE T =  "Block Number = 11" \ 
I = 3 \ 
J = 10 \ 
F = POINT 
  4.29251347020855e+00 -1.39627780554815e+00
  4.28961133426396e+00 -1.39917994149043e+00
  4.28670919831937e+00 -1.40208207743272e+00
  4.32445049530908e+00 -1.42821483067406e+00
  4.32154835936448e+00 -1.43111696661634e+00
  4.31864622341989e+00 -1.43401910255863e+00
  4.35638752040960e+00 -1.46015185579997e+00
  4.35348538446501e+00 -1.46305399174225e+00
  4.35058324852042e+00 -1.46595612768454e+00
  4.38832454551012e+00 -1.49208888092588e+00
  4.38542240956553e+00 -1.49499101686816e+00
  4.38252027362094e+00 -1.49789315281045e+00
  4.42026157061065e+00 -1.52402590605179e+00
  4.41735943466605e+00 -1.52692804199407e+00
  4.41445729872146e+00 -1.52983017793636e+00
  4.45219859571117e+00 -1.55596293117770e+00
  4.44929645976658e+00 -1.55886506711998e+00
  4.44639432382198e+00 -1.56176720306227e+00
  4.48413562081169e+00 -1.58789995630361e+00
  4.48123348486710e+00 -1.59080209224589e+00
  4.47833134892251e+00 -1.59370422818818e+00
  4.51607264591222e+00 -1.61983698142952e+00
  4.51317050996762e+00 -1.62273911737180e+00
  4.51026837402303e+00 -1.62564125331409e+00
  4.54800967101274e+00 -1.65177400655543e+00
  4.54510753506815e+00 -1.65467614249771e+00
  4.54220539912355e+00 -1.65757827843999e+00
  4.57994669611326e+00 -1.68371103168134e+00
  4.57704456016867e+00 -1.68661316762362e+00
  4.57414242422408e+00 -1.68951530356590e+00
ZONE T =  "Block Number = 12" \ 
I = 3 \ 
J = 10 \ 
F = POINT 
  4.60632552830951e+00 -1.77671989479827e+00
  4.60608982604901e+00 -1.77695559705857e+00
  4.60585412378851e+00 -1.77719129931885e+00
  4.69377619850118e+00 -1.86417056505945e+00
  4.69354049624069e+00 -1.86440626731976e+00
  4.69330479398019e+00 -1.86464196958005e+00
  4.78122686869284e+00 -1.95162123532063e+00
  4.78099116643238e+00 -1.95185693758096e+00
  4.78075546417187e+00 -1.95209263984125e+00
  4.86867753888453e+00 -2.03907190558183e+00
  4.86844183662402e+00 -2.03930760784212e+00
  4.86820613436357e+00 -2.03954331010245e+00
  4.95612820907621e+00 -2.12652257584303e+00
  4.95589250681571e+00 -2.12675827810332e+00
  4.95565680455521e+00 -2.12699398036361e+00
  5.04357887926789e+00 -2.21397324610422e+00
  5.04334317700738e+00 -2.21420894836451e+00
  5.04310747474690e+00 -2.21444465062482e+00
  5.13102954945954e+00 -2.30142391636539e+00
  5.13079384719908e+00 -2.30165961862572e+00
  5.13055814493858e+00 -2.30189532088601e+00
  5.21848021965123e+00 -2.38887458662659e+00
  5.21824451739073e+00 -2.38911028888688e+00
  5.21800881513027e+00 -2.38934599114721e+00
  5.30593088984292e+00 -2.47632525688780e+00
  5.30569518758242e+00 -2.47656095914809e+00
  5.30545948532191e+00 -2.47679666140837e+00
  5.39338156003458e+00 -2.56377592714897e+00
  5.39314585777409e+00 -2.56401162940928e+00
  5.39291015551360e+00 -2.56424733166958e+00
ZONE T =  "Block Number = 13" \ 
I = 3 \ 
J = 10 \ 
F = POINT 
  4.60703263509097e+00 -1.77601278801736e+00
  4.60679693283048e+00 -1.77624849027766e+00
  4.60656123056998e+00 -1.77648419253795e+00
  4.69448330528264e+00 -1.86346345827854e+00
  4.69424760302216e+00 -1.86369916053885e+00
  4.69401190076167e+00 -1.86393486279915e+00
  4.78193397547431e+00 -1.95091412853972e+00
  4.78169827321384e+00 -1.95114983080005e+00
  4.78146257095334e+00 -1.95138553306034e+00
  4.86938464566601e+00 -2.03836479880095e+00
  4.86914894340549e+00 -2.03860050106121e+00
  4.86891324114503e+00 -2.03883620332155e+00
  4.95683531585767e+00 -2.12581546906212e+00
  4.95659961359719e+00 -2.12605117132243e+00
  4.95636391133668e+00 -2.12628687358271e+00
  5.04428598604935e+00 -2.21326613932331e+00
  5.04405028378886e+00 -2.21350184158361e+00
  5.04381458152837e+00 -2.21373754384391e+00
  5.13173665624101e+00 -2.30071680958448e+00
  5.13150095398055e+00 -2.30095251184481e+00
  5.13126525172004e+00 -2.30118821410510e+00
  5.21918732643271e+00 -2.38816747984570e+00
  5.21895162417220e+00 -2.38840318210598e+00
  5.21871592191173e+00 -2.38863888436631e+00
  5.30663799662437e+00 -2.47561815010688e+00
  5.30640229436388e+00 -2.47585385236717e+00
  5.30616659210338e+00 -2.47608955462747e+00
  5.39408866681605e+00 -2.56306882036807e+00
  5.39385296455557e+00 -2.56330452262838e+00
  5.39361726229506e+00 -2.56354022488866e+00
ZONE T =  "Block Number = 14" \ 
I = 3 \ 
J = 10 \ 
F = POINT 
  4.60773974187243e+00 -1.77530568123645e+00
  4.60750403961195e+00 -1.77554138349676e+00
  4.60726833735146e+00 -1.77577708575706e+00
  4.69519041206412e+00 -1.86275635149765e+00
  4.69495470980362e+00 -1.86299205375794e+00
  4.69471900754313e+00 -1.86322775601825e+00
  4.78264108225580e+00 -1.95020702175885e+00
  4.78240537999528e+00 -1.95044272401912e+00
  4.78216967773482e+00 -1.95067842627945e+00
  4.87009175244744e+00 -2.03765769202000e+00
  4.86985605018699e+00 -2.03789339428034e+00
  4.86962034792647e+00 -2.03812909654062e+00
  4.95754242263915e+00 -2.12510836228122e+00
  4.95730672037865e+00 -2.12534406454151e+00
  4.95707101811815e+00 -2.12557976680181e+00
  5.04499309283081e+00 -2.21255903254240e+00
  5.04475739057033e+00 -2.21279473480270e+00
  5.04452168830984e+00 -2.21303043706301e+00
  5.13244376302250e+00 -2.30000970280361e+00
  5.13220806076199e+00 -2.30024540506388e+00
  5.13197235850153e+00 -2.30048110732421e+00
  5.21989443321415e+00 -2.38746037306477e+00
  5.21965873095369e+00 -2.38769607532510e+00
  5.21942302869317e+00 -2.38793177758537e+00
  5.30734510340583e+00 -2.47491104332597e+00
  5.30710940114535e+00 -2.47514674558627e+00
  5.30687369888487e+00 -2.47538244784658e+00
  5.39479577359752e+00 -2.56236171358717e+00
  5.39456007133703e+00 -2.56259741584746e+00
  5.39432436907653e+00 -2.56283311810776e+00
ZONE T =  "Block Number = 15" \ 
I = 3 \ 
J = 10 \ 
F = POINT 
  4.60844684865390e+00 -1.77459857445555e+00
  4.60821114639341e+00 -1.77483427671585e+00
  4.60797544413292e+00 -1.77506997897615e+00
  4.69589751884558e+00 -1.86204924471673e+00
  4.69566181658509e+00 -1.86228494697704e+00
  4.69542611432460e+00 -1.86252064923734e+00
  4.78334818903727e+00 -1.94949991497794e+00
  4.78311248677675e+00 -1.94973561723822e+00
  4.78287678451628e+00 -1.94997131949853e+00
  4.87079885922892e+00 -2.03695058523910e+00
  4.87056315696845e+00 -2.03718628749943e+00
  4.87032745470796e+00 -2.03742198975972e+00
  4.95824952942060e+00 -2.12440125550030e+00
  4.95801382716012e+00 -2.12463695776061e+00
  4.95777812489963e+00 -2.12487266002091e+00
  5.04570019961229e+00 -2.21185192576150e+00
  5.04546449735179e+00 -2.21208762802180e+00
  5.04522879509130e+00 -2.21232333028209e+00
  5.13315086980397e+00 -2.29930259602270e+00
  5.13291516754345e+00 -2.29953829828297e+00
  5.13267946528299e+00 -2.29977400054330e+00
  5.22060153999562e+00 -2.38675326628386e+00
  5.22036583773516e+00 -2.38698896854419e+00
  5.22013013547465e+00 -2.38722467080448e+00
  5.30805221018731e+00 -2.47420393654507e+00
  5.30781650792683e+00 -2.47443963880538e+00
  5.30758080566633e+00 -2.47467534106567e+00
  5.39550288037899e+00 -2.56165460680626e+00
  5.39526717811850e+00 -2.56189030906656e+00
  5.39503147585801e+00 -2.56212601132686e+00
ZONE T =  "Block Number = 16" \ 
I = 3 \ 
J = 10 \ 
F = POINT 
  4.60901253407909e+00 -1.77403288903084e+00
  4.60883340036111e+00 -1.77421202274865e+00
  4.60865426664314e+00 -1.77439115646649e+00
  4.69646320427076e+00 -1.86148355929202e+00
  4.69628407055278e+00 -1.86166269300984e+00
  4.69610493683481e+00 -1.86184182672767e+00
  4.78391387446243e+00 -1.94893422955320e+00
  4.78373474074446e+00 -1.94911336327103e+00
  4.78355560702646e+00 -1.94929249698884e+00
  4.87136454465409e+00 -2.03638489981437e+00
  4.87118541093613e+00 -2.03656403353222e+00
  4.87100627721818e+00 -2.03674316725007e+00
  4.95881521484580e+00 -2.12383557007560e+00
  4.95863608112782e+00 -2.12401470379342e+00
  4.95845694740984e+00 -2.12419383751124e+00
  5.04626588503746e+00 -2.21128624033677e+00
  5.04608675131948e+00 -2.21146537405459e+00
  5.04590761760151e+00 -2.21164450777243e+00
  5.13371655522913e+00 -2.29873691059796e+00
  5.13353742151116e+00 -2.29891604431579e+00
  5.13335828779317e+00 -2.29909517803360e+00
  5.22116722542078e+00 -2.38618758085913e+00
  5.22098809170284e+00 -2.38636671457699e+00
  5.22080895798488e+00 -2.38654584829483e+00
  5.30861789561251e+00 -2.47363825112037e+00
  5.30843876189450e+00 -2.47381738483816e+00
  5.30825962817654e+00 -2.47399651855600e+00
  5.39606856580416e+00 -2.56108892138153e+00
  5.39588943208620e+00 -2.56126805509937e+00
  5.39571029836821e+00 -2.56144718881718e+00
ZONE T =  "Block Number = 17" \ 
I = 3 \ 
J = 10 \ 
F = POINT 
  4.60999772962944e+00 -1.77304769348126e+00
  4.60963947815288e+00 -1.77340594495752e+00
  4.60928122667633e+00 -1.77376419643377e+00
  4.69744839982111e+00 -1.86049836374245e+00
  4.69709014834455e+00 -1.86085661521869e+00
  4.69673189686802e+00 -1.86121486669498e+00
  4.78489907001277e+00 -1.94794903400362e+00
  4.78454081853625e+00 -1.94830728547991e+00
  4.78418256705969e+00 -1.94866553695616e+00
  4.87234974020446e+00 -2.03539970426482e+00
  4.87199148872791e+00 -2.03575795574109e+00
  4.87163323725136e+00 -2.03611620721734e+00
  4.95980041039615e+00 -2.12285037452603e+00
  4.95944215891958e+00 -2.12320862600227e+00
  4.95908390744303e+00 -2.12356687747853e+00
  5.04725108058780e+00 -2.21030104478720e+00
  5.04689282911125e+00 -2.21065929626346e+00
  5.04653457763473e+00 -2.21101754773974e+00
  5.13470175077948e+00 -2.29775171504838e+00
  5.13434349930295e+00 -2.29810996652466e+00
  5.13398524782639e+00 -2.29846821800092e+00
  5.22215242097116e+00 -2.38520238530958e+00
  5.22179416949461e+00 -2.38556063678585e+00
  5.22143591801807e+00 -2.38591888826211e+00
  5.30960309116284e+00 -2.47265305557078e+00
  5.30924483968629e+00 -2.47301130704704e+00
  5.30888658820973e+00 -2.47336955852328e+00
  5.39705376135451e+00 -2.56010372583196e+00
  5.39669550987796e+00 -2.56046197730822e+00
  5.39633725840143e+00 -2.56082022878450e+00
ZONE T =  "Block Number = 18" \ 
I = 3 \ 
J = 10 \ 
F = POINT 
  4.61163370975655e+00 -1.77141171335543e+00
  4.61105096800101e+00 -1.77199445511051e+00
  4.61046822624547e+00 -1.77257719686558e+00
  4.69908437994823e+00 -1.85886238361662e+00
  4.69850163819269e+00 -1.85944512537170e+00
  4.69791889643715e+00 -1.86002786712677e+00
  4.78653505013991e+00 -1.94631305387781e+00
  4.78595230838437e+00 -1.94689579563289e+00
  4.78536956662883e+00 -1.94747853738797e+00
  4.87398572033158e+00 -2.03376372413900e+00
  4.87340297857604e+00 -2.03434646589407e+00
  4.87282023682050e+00 -2.03492920764916e+00
  4.96143639052326e+00 -2.12121439440019e+00
  4.96085364876772e+00 -2.12179713615527e+00
  4.96027090701217e+00 -2.12237987791034e+00
  5.04888706071493e+00 -2.20866506466138e+00
  5.04830431895939e+00 -2.20924780641646e+00
  5.04772157720385e+00 -2.20983054817154e+00
  5.13633773090661e+00 -2.29611573492257e+00
  5.13575498915107e+00 -2.29669847667765e+00
  5.13517224739553e+00 -2.29728121843273e+00
  5.22378840109828e+00 -2.38356640518376e+00
  5.22320565934274e+00 -2.38414914693884e+00
  5.22262291758720e+00 -2.38473188869391e+00
  5.31123907128996e+00 -2.47101707544495e+00
  5.31065632953442e+00 -2.47159981720002e+00
  5.31007358777887e+00 -2.47218255895510e+00
  5.39868974148164e+00 -2.55846774570614e+00
  5.39810699972610e+00 -2.55905048746122e+00
  5.39752425797055e+00 -2.55963322921629e+00
ZONE T =  "Block Number = 19" \ 
I = 3 \ 
J = 10 \ 
F = POINT 
  4.61422822121563e+00 -1.76881720189842e+00
  4.61330696498311e+00 -1.76973845813021e+00
  4.61238570875058e+00 -1.77065971436200e+00
  4.70167889140730e+00 -1.85626787215961e+00
  4.70075763517478e+00 -1.85718912839140e+00
  4.69983637894226e+00 -1.85811038462319e+00
  4.78912956159898e+00 -1.94371854242080e+00
  4.78820830536645e+00 -1.94463979865258e+00
  4.78728704913394e+00 -1.94556105488438e+00
  4.87658023179065e+00 -2.03116921268199e+00
  4.87565897555814e+00 -2.03209046891378e+00
  4.87473771932561e+00 -2.03301172514557e+00
  4.96403090198233e+00 -2.11861988294318e+00
  4.96310964574981e+00 -2.11954113917497e+00
  4.96218838951729e+00 -2.12046239540676e+00
  5.05148157217401e+00 -2.20607055320437e+00
  5.05056031594149e+00 -2.20699180943616e+00
  5.04963905970896e+00 -2.20791306566795e+00
  5.13893224236568e+00 -2.29352122346556e+00
  5.13801098613316e+00 -2.29444247969734e+00
  5.13708972990064e+00 -2.29536373592914e+00
  5.22638291255736e+00 -2.38097189372675e+00
  5.22546165632484e+00 -2.38189314995854e+00
  5.22454040009231e+00 -2.38281440619033e+00
  5.31383358274903e+00 -2.46842256398794e+00
  5.31291232651651e+00 -2.46934382021973e+00
  5.31199107028399e+00 -2.47026507645152e+00
  5.40128425294071e+00 -2.55587323424913e+00
  5.40036299670819e+00 -2.55679449048092e+00
  5.39944174047567e+00 -2.55771574671271e+00
ZONE T =  "Block Number = 20" \ 
I = 3 \ 
J = 10 \ 
F = POINT 
  4.61817066688754e+00 -1.76487475622964e+00
  4.61677793986528e+00 -1.76626748325079e+00
  4.61538521284302e+00 -1.76766021027195e+00
  4.70562133707922e+00 -1.85232542649083e+00
  4.70422861005696e+00 -1.85371815351198e+00
  4.70283588303470e+00 -1.85511088053314e+00
  4.79307200727089e+00 -1.93977609675202e+00
  4.79167928024863e+00 -1.94116882377317e+00
  4.79028655322637e+00 -1.94256155079433e+00
  4.88052267746257e+00 -2.02722676701321e+00
  4.87912995044031e+00 -2.02861949403436e+00
  4.87773722341805e+00 -2.03001222105551e+00
  4.96797334765424e+00 -2.11467743727440e+00
  4.96658062063198e+00 -2.11607016429555e+00
  4.96518789360972e+00 -2.11746289131671e+00
  5.05542401784592e+00 -2.20212810753559e+00
  5.05403129082366e+00 -2.20352083455674e+00
  5.05263856380140e+00 -2.20491356157789e+00
  5.14287468803760e+00 -2.28957877779678e+00
  5.14148196101533e+00 -2.29097150481793e+00
  5.14008923399308e+00 -2.29236423183909e+00
  5.23032535822927e+00 -2.37702944805797e+00
  5.22893263120701e+00 -2.37842217507912e+00
  5.22753990418475e+00 -2.37981490210027e+00
  5.31777602842095e+00 -2.46448011831916e+00
  5.31638330139869e+00 -2.46587284534031e+00
  5.31499057437643e+00 -2.46726557236147e+00
  5.40522669861262e+00 -2.55193078858035e+00
  5.40383397159036e+00 -2.55332351560150e+00
  5.40244124456810e+00 -2.55471624262266e+00
ZONE T =  "Block Number = 21" \ 
I = 3 \ 
J = 10 \ 
F = POINT 
  4.62379038341985e+00 -1.75925503970179e+00
  4.62182104221138e+00 -1.76122438090870e+00
  4.61985170100291e+00 -1.76319372211561e+00
  4.71124105361153e+00 -1.84670570996298e+00