TITLE = "CFFC: 2D Structured Curvilinear Grid Block (Cell Locations)"
VARIABLES = "x" \ 
"y" 
ZONE T =  "Block Number = 0" \ 
I = 40 \ 
J = 30 \ 
F = POINT 
  6.00134926230523e+00 -3.99642477175880e+00
  6.00443926978859e+00 -3.99642477174546e+00
  6.00842581387769e+00 -3.99642477176519e+00
  6.01356897292719e+00 -3.99642477180746e+00
  6.02020424306886e+00 -3.99642477172560e+00
  6.02876438976004e+00 -3.99642477176345e+00
  6.03980761549042e+00 -3.99642477181355e+00
  6.05405386566612e+00 -3.99642477176630e+00
  6.07243160708251e+00 -3.99642477178420e+00
  6.09613807548276e+00 -3.99642477176157e+00
  6.12671683502304e+00 -3.99642477177734e+00
  6.16615755588694e+00 -3.99642477177506e+00
  6.21702426995072e+00 -3.99642477178201e+00
  6.28262005181202e+00 -3.99642477177408e+00
  6.36719817397583e+00 -3.99642477177288e+00
  6.47623235622401e+00 -3.99642477178030e+00
  6.61676182618124e+00 -3.99642477177430e+00
  6.79783053570934e+00 -3.99642477177661e+00
  7.03104395921895e+00 -3.99642477177765e+00
  7.33127119365278e+00 -3.99642477177604e+00
  7.71752404738991e+00 -3.99642477177587e+00
  8.21404741553711e+00 -3.99642477177674e+00
  8.85165464718439e+00 -3.99642477177629e+00
  9.66933470831017e+00 -3.99642477177614e+00
  1.07161397488402e+01 -3.99642477177553e+00
  1.20533246150254e+01 -3.99642477177647e+00
  1.37566431125106e+01 -3.99642477177671e+00
  1.59185954267672e+01 -3.99642477177634e+00
  1.86502516606233e+01 -3.99642477177607e+00
  2.20820368459593e+01 -3.99642477177600e+00
  2.63625587615617e+01 -3.99642477177618e+00
  3.16542365000915e+01 -3.99642477177660e+00
  3.81242612536007e+01 -3.99642477177599e+00
  4.59295083463195e+01 -3.99642477177640e+00
  5.51947328738343e+01 -3.99642477177644e+00
  6.59850260338711e+01 -3.99642477177591e+00
  7.82761354604297e+01 -3.99642477177618e+00
  9.19292969217076e+01 -3.99642477177672e+00
  1.06679292215405e+02 -3.99642477177591e+00
  1.22143674307096e+02 -3.99642477177691e+00
  6.00134926236418e+00 -3.98794301833852e+00
  6.00443926989299e+00 -3.98794301835501e+00
  6.00842581394742e+00 -3.98794301835099e+00
  6.01356897289591e+00 -3.98794301832736e+00
  6.02020424317685e+00 -3.98794301833724e+00
  6.02876438975642e+00 -3.98794301830120e+00
  6.03980761541744e+00 -3.98794301830578e+00
  6.05405386570060e+00 -3.98794301832919e+00
  6.07243160705946e+00 -3.98794301830934e+00
  6.09613807552853e+00 -3.98794301833185e+00
  6.12671683502229e+00 -3.98794301831713e+00
  6.16615755588410e+00 -3.98794301831341e+00
  6.21702426992979e+00 -3.98794301830888e+00
  6.28262005182331e+00 -3.98794301832141e+00
  6.36719817398609e+00 -3.98794301831966e+00
  6.47623235621278e+00 -3.98794301831365e+00
  6.61676182618507e+00 -3.98794301831693e+00
  6.79783053570720e+00 -3.98794301831535e+00
  7.03104395921474e+00 -3.98794301831544e+00
  7.33127119365374e+00 -3.98794301831660e+00
  7.71752404739262e+00 -3.98794301831767e+00
  8.21404741553560e+00 -3.98794301831624e+00
  8.85165464718387e+00 -3.98794301831637e+00
  9.66933470830969e+00 -3.98794301831611e+00
  1.07161397488449e+01 -3.98794301831745e+00
  1.20533246150242e+01 -3.98794301831631e+00
  1.37566431125068e+01 -3.98794301831580e+00
  1.59185954267682e+01 -3.98794301831674e+00
  1.86502516606252e+01 -3.98794301831670e+00
  2.20820368459597e+01 -3.98794301831673e+00
  2.63625587615601e+01 -3.98794301831638e+00
  3.16542365000857e+01 -3.98794301831626e+00
  3.81242612536069e+01 -3.98794301831688e+00
  4.59295083463104e+01 -3.98794301831604e+00
  5.51947328738319e+01 -3.98794301831637e+00
  6.59850260338832e+01 -3.98794301831710e+00
  7.82761354604277e+01 -3.98794301831627e+00
  9.19292969216975e+01 -3.98794301831621e+00
  1.06679292215418e+02 -3.98794301831658e+00
  1.22143674307071e+02 -3.98794301831627e+00
  6.00134926231347e+00 -3.97630310589745e+00
  6.00443926982756e+00 -3.97630310590443e+00
  6.00842581378898e+00 -3.97630310583869e+00
  6.01356897286667e+00 -3.97630310590079e+00
  6.02020424315445e+00 -3.97630310591486e+00
  6.02876438981081e+00 -3.97630310593017e+00
  6.03980761540641e+00 -3.97630310589101e+00
  6.05405386570254e+00 -3.97630310592312e+00
  6.07243160706350e+00 -3.97630310590448e+00
  6.09613807549893e+00 -3.97630310590528e+00
  6.12671683501488e+00 -3.97630310590508e+00
  6.16615755589265e+00 -3.97630310591155e+00
  6.21702426994796e+00 -3.97630310591323e+00
  6.28262005181050e+00 -3.97630310590613e+00
  6.36719817397963e+00 -3.97630310590834e+00
  6.47623235622017e+00 -3.97630310591093e+00
  6.61676182618319e+00 -3.97630310590847e+00
  6.79783053571201e+00 -3.97630310591089e+00
  7.03104395921491e+00 -3.97630310590834e+00
  7.33127119365394e+00 -3.97630310590951e+00
  7.71752404738954e+00 -3.97630310590886e+00
  8.21404741553451e+00 -3.97630310590848e+00
  8.85165464718493e+00 -3.97630310590946e+00
  9.66933470831105e+00 -3.97630310590955e+00
  1.07161397488415e+01 -3.97630310590909e+00
  1.20533246150257e+01 -3.97630310590945e+00
  1.37566431125092e+01 -3.97630310590940e+00
  1.59185954267658e+01 -3.97630310590894e+00
  1.86502516606239e+01 -3.97630310590898e+00
  2.20820368459599e+01 -3.97630310590923e+00
  2.63625587615625e+01 -3.97630310590934e+00
  3.16542365000864e+01 -3.97630310590904e+00
  3.81242612536038e+01 -3.97630310590921e+00
  4.59295083463172e+01 -3.97630310590932e+00
  5.51947328738366e+01 -3.97630310590934e+00
  6.59850260338669e+01 -3.97630310590881e+00
  7.82761354604372e+01 -3.97630310590933e+00
  9.19292969217076e+01 -3.97630310590958e+00
  1.06679292215406e+02 -3.97630310590898e+00
  1.22143674307074e+02 -3.97630310590905e+00
  6.00134926231379e+00 -3.96032958128995e+00
  6.00443926991152e+00 -3.96032958135211e+00
  6.00842581389491e+00 -3.96032958130127e+00
  6.01356897287570e+00 -3.96032958129882e+00
  6.02020424313542e+00 -3.96032958129490e+00
  6.02876438978101e+00 -3.96032958130275e+00
  6.03980761545630e+00 -3.96032958131623e+00
  6.05405386565529e+00 -3.96032958128458e+00
  6.07243160707913e+00 -3.96032958130718e+00
  6.09613807550359e+00 -3.96032958130062e+00
  6.12671683503078e+00 -3.96032958130766e+00
  6.16615755588126e+00 -3.96032958129656e+00
  6.21702426994617e+00 -3.96032958130447e+00
  6.28262005181141e+00 -3.96032958129905e+00
  6.36719817398157e+00 -3.96032958130190e+00
  6.47623235621543e+00 -3.96032958130031e+00
  6.61676182618848e+00 -3.96032958130390e+00
  6.79783053570662e+00 -3.96032958130005e+00
  7.03104395921819e+00 -3.96032958130254e+00
  7.33127119365322e+00 -3.96032958130152e+00
  7.71752404738982e+00 -3.96032958130127e+00
  8.21404741553700e+00 -3.96032958130204e+00
  8.85165464718376e+00 -3.96032958130136e+00
  9.66933470831117e+00 -3.96032958130175e+00
  1.07161397488408e+01 -3.96032958130106e+00
  1.20533246150251e+01 -3.96032958130161e+00
  1.37566431125084e+01 -3.96032958130142e+00
  1.59185954267682e+01 -3.96032958130176e+00
  1.86502516606244e+01 -3.96032958130170e+00
  2.20820368459580e+01 -3.96032958130137e+00
  2.63625587615616e+01 -3.96032958130166e+00
  3.16542365000883e+01 -3.96032958130155e+00
  3.81242612536017e+01 -3.96032958130140e+00
  4.59295083463172e+01 -3.96032958130172e+00
  5.51947328738318e+01 -3.96032958130136e+00
  6.59850260338774e+01 -3.96032958130174e+00
  7.82761354604324e+01 -3.96032958130159e+00
  9.19292969216946e+01 -3.96032958130136e+00
  1.06679292215416e+02 -3.96032958130156e+00
  1.22143674307075e+02 -3.96032958130149e+00
  6.00134926239595e+00 -3.93840991573283e+00
  6.00443926973384e+00 -3.93840991562442e+00
  6.00842581392644e+00 -3.93840991571078e+00
  6.01356897290200e+00 -3.93840991570520e+00
  6.02020424315417e+00 -3.93840991569627e+00
  6.02876438976026e+00 -3.93840991567797e+00
  6.03980761543307e+00 -3.93840991568995e+00
  6.05405386568045e+00 -3.93840991568991e+00
  6.07243160707826e+00 -3.93840991569544e+00
  6.09613807549735e+00 -3.93840991568543e+00
  6.12671683501807e+00 -3.93840991568839e+00
  6.16615755589521e+00 -3.93840991569446e+00
  6.21702426994018e+00 -3.93840991568946e+00
  6.28262005181845e+00 -3.93840991569237e+00
  6.36719817397910e+00 -3.93840991568924e+00
  6.47623235621801e+00 -3.93840991569085e+00
  6.61676182618229e+00 -3.93840991568907e+00
  6.79783053571017e+00 -3.93840991569108e+00
  7.03104395921590e+00 -3.93840991569013e+00
  7.33127119365369e+00 -3.93840991569062e+00
  7.71752404738996e+00 -3.93840991569022e+00
  8.21404741553605e+00 -3.93840991569041e+00
  8.85165464718443e+00 -3.93840991569047e+00
  9.66933470830989e+00 -3.93840991569022e+00
  1.07161397488429e+01 -3.93840991569068e+00
  1.20533246150249e+01 -3.93840991569040e+00
  1.37566431125091e+01 -3.93840991569056e+00
  1.59185954267663e+01 -3.93840991569026e+00
  1.86502516606239e+01 -3.93840991569035e+00
  2.20820368459604e+01 -3.93840991569062e+00
  2.63625587615611e+01 -3.93840991569035e+00
  3.16542365000873e+01 -3.93840991569034e+00
  3.81242612536056e+01 -3.93840991569069e+00
  4.59295083463139e+01 -3.93840991569027e+00
  5.51947328738338e+01 -3.93840991569041e+00
  6.59850260338736e+01 -3.93840991569038e+00
  7.82761354604342e+01 -3.93840991569052e+00
  9.19292969216964e+01 -3.93840991569030e+00
  1.06679292215416e+02 -3.93840991569052e+00
  1.22143674307083e+02 -3.93840991569061e+00
  6.00134926233665e+00 -3.90833235805952e+00
  6.00443926986953e+00 -3.90833235807918e+00
  6.00842581387341e+00 -3.90833235804253e+00
  6.01356897286718e+00 -3.90833235804820e+00
  6.02020424314775e+00 -3.90833235805786e+00
  6.02876438978960e+00 -3.90833235806289e+00
  6.03980761542759e+00 -3.90833235805243e+00
  6.05405386568242e+00 -3.90833235805705e+00
  6.07243160706536e+00 -3.90833235805303e+00
  6.09613807551138e+00 -3.90833235806034e+00
  6.12671683501781e+00 -3.90833235805411e+00
  6.16615755588862e+00 -3.90833235805614e+00
  6.21702426994068e+00 -3.90833235805567e+00
  6.28262005181661e+00 -3.90833235805706e+00
  6.36719817398194e+00 -3.90833235805698e+00
  6.47623235621653e+00 -3.90833235805579e+00
  6.61676182618505e+00 -3.90833235805667e+00
  6.79783053570889e+00 -3.90833235805621e+00
  7.03104395921627e+00 -3.90833235805623e+00
  7.33127119365283e+00 -3.90833235805606e+00
  7.71752404739119e+00 -3.90833235805676e+00
  8.21404741553595e+00 -3.90833235805632e+00
  8.85165464718410e+00 -3.90833235805626e+00
  9.66933470831055e+00 -3.90833235805638e+00
  1.07161397488419e+01 -3.90833235805628e+00
  1.20533246150249e+01 -3.90833235805636e+00
  1.37566431125086e+01 -3.90833235805625e+00
  1.59185954267671e+01 -3.90833235805634e+00
  1.86502516606246e+01 -3.90833235805639e+00
  2.20820368459586e+01 -3.90833235805623e+00
  2.63625587615620e+01 -3.90833235805638e+00
  3.16542365000886e+01 -3.90833235805638e+00
  3.81242612536027e+01 -3.90833235805627e+00
  4.59295083463167e+01 -3.90833235805639e+00
  5.51947328738336e+01 -3.90833235805639e+00
  6.59850260338720e+01 -3.90833235805624e+00
  7.82761354604330e+01 -3.90833235805634e+00
  9.19292969216996e+01 -3.90833235805633e+00
  1.06679292215418e+02 -3.90833235805649e+00
  1.22143674307073e+02 -3.90833235805621e+00
  6.00134926231460e+00 -3.86706396510553e+00
  6.00443926979671e+00 -3.86706396509231e+00
  6.00842581393319e+00 -3.86706396514152e+00
  6.01356897286215e+00 -3.86706396510576e+00
  6.02020424315511e+00 -3.86706396512315e+00
  6.02876438978073e+00 -3.86706396511799e+00
  6.03980761542300e+00 -3.86706396511005e+00
  6.05405386569002e+00 -3.86706396512257e+00
  6.07243160707069e+00 -3.86706396511706e+00
  6.09613807550523e+00 -3.86706396511721e+00
  6.12671683502303e+00 -3.86706396511807e+00
  6.16615755588672e+00 -3.86706396511565e+00
  6.21702426994212e+00 -3.86706396511725e+00
  6.28262005181349e+00 -3.86706396511580e+00
  6.36719817398248e+00 -3.86706396511795e+00
  6.47623235621759e+00 -3.86706396511713e+00
  6.61676182618363e+00 -3.86706396511651e+00
  6.79783053570952e+00 -3.86706396511726e+00
  7.03104395921635e+00 -3.86706396511695e+00
  7.33127119365335e+00 -3.86706396511701e+00
  7.71752404739024e+00 -3.86706396511695e+00
  8.21404741553611e+00 -3.86706396511706e+00
  8.85165464718438e+00 -3.86706396511701e+00
  9.66933470831063e+00 -3.86706396511706e+00
  1.07161397488423e+01 -3.86706396511705e+00
  1.20533246150246e+01 -3.86706396511692e+00
  1.37566431125088e+01 -3.86706396511701e+00
  1.59185954267675e+01 -3.86706396511713e+00
  1.86502516606241e+01 -3.86706396511697e+00
  2.20820368459591e+01 -3.86706396511699e+00
  2.63625587615611e+01 -3.86706396511694e+00
  3.16542365000886e+01 -3.86706396511710e+00
  3.81242612536031e+01 -3.86706396511697e+00
  4.59295083463155e+01 -3.86706396511700e+00
  5.51947328738337e+01 -3.86706396511702e+00
  6.59850260338756e+01 -3.86706396511707e+00
  7.82761354604311e+01 -3.86706396511690e+00
  9.19292969217011e+01 -3.86706396511709e+00
  1.06679292215413e+02 -3.86706396511696e+00
  1.22143674307076e+02 -3.86706396511697e+00
  6.00134926231472e+00 -3.81044702773186e+00
  6.00443926988612e+00 -3.81044702777582e+00
  6.00842581386599e+00 -3.81044702772496e+00
  6.01356897289770e+00 -3.81044702775419e+00
  6.02020424313082e+00 -3.81044702773360e+00
  6.02876438977889e+00 -3.81044702774263e+00
  6.03980761544593e+00 -3.81044702775050e+00
  6.05405386567428e+00 -3.81044702773850e+00
  6.07243160706848e+00 -3.81044702774166e+00
  6.09613807550601e+00 -3.81044702774354e+00
  6.12671683501976e+00 -3.81044702774193e+00
  6.16615755589187e+00 -3.81044702774471e+00
  6.21702426994066e+00 -3.81044702774226e+00
  6.28262005181663e+00 -3.81044702774365e+00
  6.36719817397936e+00 -3.81044702774194e+00
  6.47623235621774e+00 -3.81044702774310e+00
  6.61676182618514e+00 -3.81044702774329e+00
  6.79783053570901e+00 -3.81044702774285e+00
  7.03104395921628e+00 -3.81044702774280e+00
  7.33127119365355e+00 -3.81044702774302e+00
  7.71752404739015e+00 -3.81044702774279e+00
  8.21404741553616e+00 -3.81044702774300e+00
  8.85165464718421e+00 -3.81044702774283e+00
  9.66933470831040e+00 -3.81044702774289e+00
  1.07161397488422e+01 -3.81044702774295e+00
  1.20533246150247e+01 -3.81044702774286e+00
  1.37566431125088e+01 -3.81044702774292e+00
  1.59185954267669e+01 -3.81044702774286e+00
  1.86502516606243e+01 -3.81044702774291e+00
  2.20820368459593e+01 -3.81044702774290e+00
  2.63625587615616e+01 -3.81044702774293e+00
  3.16542365000880e+01 -3.81044702774292e+00
  3.81242612536030e+01 -3.81044702774284e+00
  4.59295083463159e+01 -3.81044702774292e+00
  5.51947328738337e+01 -3.81044702774292e+00
  6.59850260338739e+01 -3.81044702774289e+00
  7.82761354604340e+01 -3.81044702774297e+00
  9.19292969216992e+01 -3.81044702774288e+00
  1.06679292215414e+02 -3.81044702774288e+00
  1.22143674307079e+02 -3.81044702774296e+00
  6.00134926235307e+00 -3.73278444207519e+00
  6.00443926980935e+00 -3.73278444204522e+00
  6.00842581390839e+00 -3.73278444206935e+00
  6.01356897287029e+00 -3.73278444205530e+00
  6.02020424314854e+00 -3.73278444206274e+00
  6.02876438977777e+00 -3.73278444206012e+00
  6.03980761543088e+00 -3.73278444205928e+00
  6.05405386568606e+00 -3.73278444206401e+00
  6.07243160706994e+00 -3.73278444206074e+00
  6.09613807550409e+00 -3.73278444206051e+00
  6.12671683502254e+00 -3.73278444206181e+00
  6.16615755588779e+00 -3.73278444206041e+00
  6.21702426994175e+00 -3.73278444206109e+00
  6.28262005181610e+00 -3.73278444206150e+00
  6.36719817398088e+00 -3.73278444206104e+00
  6.47623235621728e+00 -3.73278444206103e+00
  6.61676182618463e+00 -3.73278444206117e+00
  6.79783053570872e+00 -3.73278444206088e+00
  7.03104395921679e+00 -3.73278444206124e+00
  7.33127119365312e+00 -3.73278444206098e+00
  7.71752404739041e+00 -3.73278444206111e+00
  8.21404741553600e+00 -3.73278444206109e+00
  8.85165464718455e+00 -3.73278444206118e+00
  9.66933470831030e+00 -3.73278444206102e+00
  1.07161397488421e+01 -3.73278444206107e+00
  1.20533246150249e+01 -3.73278444206108e+00
  1.37566431125090e+01 -3.73278444206114e+00
  1.59185954267669e+01 -3.73278444206105e+00
  1.86502516606243e+01 -3.73278444206112e+00
  2.20820368459593e+01 -3.73278444206110e+00
  2.63625587615614e+01 -3.73278444206107e+00
  3.16542365000878e+01 -3.73278444206105e+00
  3.81242612536036e+01 -3.73278444206109e+00
  4.59295083463159e+01 -3.73278444206109e+00
  5.51947328738335e+01 -3.73278444206108e+00
  6.59850260338737e+01 -3.73278444206106e+00
  7.82761354604333e+01 -3.73278444206111e+00
  9.19292969216990e+01 -3.73278444206107e+00
  1.06679292215415e+02 -3.73278444206109e+00
  1.22143674307077e+02 -3.73278444206106e+00
  6.00134926232689e+00 -3.62627442972290e+00
  6.00443926983803e+00 -3.62627442972741e+00
  6.00842581389166e+00 -3.62627442972346e+00
  6.01356897288443e+00 -3.62627442972832e+00
  6.02020424314915e+00 -3.62627442972767e+00
  6.02876438977610e+00 -3.62627442972333e+00
  6.03980761543605e+00 -3.62627442972673e+00
  6.05405386568005e+00 -3.62627442972471e+00
  6.07243160707156e+00 -3.62627442972600e+00
  6.09613807550456e+00 -3.62627442972508e+00
  6.12671683502111e+00 -3.62627442972523e+00
  6.16615755588890e+00 -3.62627442972539e+00
  6.21702426994234e+00 -3.62627442972579e+00
  6.28262005181435e+00 -3.62627442972476e+00
  6.36719817398118e+00 -3.62627442972552e+00
  6.47623235621748e+00 -3.62627442972545e+00
  6.61676182618428e+00 -3.62627442972528e+00
  6.79783053570937e+00 -3.62627442972554e+00
  7.03104395921648e+00 -3.62627442972540e+00
  7.33127119365333e+00 -3.62627442972539e+00
  7.71752404739034e+00 -3.62627442972538e+00
  8.21404741553590e+00 -3.62627442972535e+00
  8.85165464718428e+00 -3.62627442972536e+00
  9.66933470831054e+00 -3.62627442972542e+00
  1.07161397488420e+01 -3.62627442972537e+00
  1.20533246150250e+01 -3.62627442972542e+00
  1.37566431125087e+01 -3.62627442972538e+00
  1.59185954267671e+01 -3.62627442972540e+00
  1.86502516606242e+01 -3.62627442972538e+00
  2.20820368459592e+01 -3.62627442972539e+00
  2.63625587615614e+01 -3.62627442972539e+00
  3.16542365000881e+01 -3.62627442972540e+00
  3.81242612536035e+01 -3.62627442972540e+00
  4.59295083463157e+01 -3.62627442972540e+00
  5.51947328738336e+01 -3.62627442972539e+00
  6.59850260338745e+01 -3.62627442972540e+00
  7.82761354604324e+01 -3.62627442972538e+00
  9.19292969216993e+01 -3.62627442972538e+00
  1.06679292215415e+02 -3.62627442972541e+00
  1.22143674307077e+02 -3.62627442972538e+00
  6.00134926232982e+00 -3.48024180911994e+00
  6.00443926983476e+00 -3.48024180912095e+00
  6.00842581389484e+00 -3.48024180912064e+00
  6.01356897287612e+00 -3.48024180911900e+00
  6.02020424314754e+00 -3.48024180912226e+00
  6.02876438978157e+00 -3.48024180912234e+00
  6.03980761543140e+00 -3.48024180911949e+00
  6.05405386568133e+00 -3.48024180912095e+00
  6.07243160707038e+00 -3.48024180912091e+00
  6.09613807550528e+00 -3.48024180912115e+00
  6.12671683502138e+00 -3.48024180912097e+00
  6.16615755588949e+00 -3.48024180912129e+00
  6.21702426994134e+00 -3.48024180912079e+00
  6.28262005181532e+00 -3.48024180912089e+00
  6.36719817398133e+00 -3.48024180912118e+00
  6.47623235621724e+00 -3.48024180912089e+00
  6.61676182618458e+00 -3.48024180912104e+00
  6.79783053570895e+00 -3.48024180912091e+00
  7.03104395921645e+00 -3.48024180912097e+00
  7.33127119365332e+00 -3.48024180912097e+00
  7.71752404739047e+00 -3.48024180912103e+00
  8.21404741553597e+00 -3.48024180912097e+00
  8.85165464718441e+00 -3.48024180912100e+00
  9.66933470831035e+00 -3.48024180912095e+00
  1.07161397488422e+01 -3.48024180912100e+00
  1.20533246150249e+01 -3.48024180912098e+00
  1.37566431125087e+01 -3.48024180912097e+00
  1.59185954267671e+01 -3.48024180912099e+00
  1.86502516606242e+01 -3.48024180912098e+00
  2.20820368459592e+01 -3.48024180912097e+00
  2.63625587615615e+01 -3.48024180912098e+00
  3.16542365000879e+01 -3.48024180912097e+00
  3.81242612536036e+01 -3.48024180912099e+00
  4.59295083463155e+01 -3.48024180912097e+00
  5.51947328738336e+01 -3.48024180912098e+00
  6.59850260338741e+01 -3.48024180912098e+00
  7.82761354604328e+01 -3.48024180912098e+00
  9.19292969217000e+01 -3.48024180912100e+00
  1.06679292215414e+02 -3.48024180912095e+00
  1.22143674307078e+02 -3.48024180912100e+00
  6.00134926233568e+00 -3.28009623718682e+00
  6.00443926983397e+00 -3.28009623718348e+00
  6.00842581389892e+00 -3.28009623718592e+00
  6.01356897287856e+00 -3.28009623718348e+00
  6.02020424314332e+00 -3.28009623718293e+00
  6.02876438978016e+00 -3.28009623718435e+00
  6.03980761543293e+00 -3.28009623718334e+00
  6.05405386568257e+00 -3.28009623718469e+00
  6.07243160707009e+00 -3.28009623718365e+00
  6.09613807550541e+00 -3.28009623718421e+00
  6.12671683502077e+00 -3.28009623718358e+00
  6.16615755588881e+00 -3.28009623718390e+00
  6.21702426994195e+00 -3.28009623718407e+00
  6.28262005181546e+00 -3.28009623718392e+00
  6.36719817398066e+00 -3.28009623718380e+00
  6.47623235621778e+00 -3.28009623718412e+00
  6.61676182618423e+00 -3.28009623718382e+00
  6.79783053570916e+00 -3.28009623718397e+00
  7.03104395921647e+00 -3.28009623718393e+00
  7.33127119365335e+00 -3.28009623718394e+00
  7.71752404739033e+00 -3.28009623718392e+00
  8.21404741553599e+00 -3.28009623718393e+00
  8.85165464718433e+00 -3.28009623718393e+00
  9.66933470831056e+00 -3.28009623718397e+00
  1.07161397488420e+01 -3.28009623718391e+00
  1.20533246150249e+01 -3.28009623718394e+00
  1.37566431125087e+01 -3.28009623718393e+00
  1.59185954267671e+01 -3.28009623718394e+00
  1.86502516606242e+01 -3.28009623718393e+00
  2.20820368459592e+01 -3.28009623718393e+00
  2.63625587615615e+01 -3.28009623718394e+00
  3.16542365000880e+01 -3.28009623718393e+00
  3.81242612536035e+01 -3.28009623718394e+00
  4.59295083463158e+01 -3.28009623718394e+00
  5.51947328738336e+01 -3.28009623718393e+00
  6.59850260338741e+01 -3.28009623718393e+00
  7.82761354604329e+01 -3.28009623718394e+00
  9.19292969216991e+01 -3.28009623718392e+00
  1.06679292215415e+02 -3.28009623718395e+00
  1.22143674307077e+02 -3.28009623718393e+00
  6.00134926233019e+00 -3.00592728683426e+00
  6.00443926983214e+00 -3.00592728683342e+00
  6.00842581389582e+00 -3.00592728683520e+00
  6.01356897287855e+00 -3.00592728683409e+00
  6.02020424314497e+00 -3.00592728683461e+00
  6.02876438978111e+00 -3.00592728683566e+00
  6.03980761543498e+00 -3.00592728683543e+00
  6.05405386567944e+00 -3.00592728683386e+00
  6.07243160707104e+00 -3.00592728683502e+00
  6.09613807550500e+00 -3.00592728683482e+00
  6.12671683502182e+00 -3.00592728683502e+00
  6.16615755588862e+00 -3.00592728683466e+00
  6.21702426994134e+00 -3.00592728683463e+00
  6.28262005181569e+00 -3.00592728683491e+00
  6.36719817398104e+00 -3.00592728683485e+00
  6.47623235621729e+00 -3.00592728683477e+00
  6.61676182618459e+00 -3.00592728683486e+00
  6.79783053570894e+00 -3.00592728683473e+00
  7.03104395921653e+00 -3.00592728683483e+00
  7.33127119365332e+00 -3.00592728683479e+00
  7.71752404739039e+00 -3.00592728683482e+00
  8.21404741553602e+00 -3.00592728683481e+00
  8.85165464718433e+00 -3.00592728683480e+00
  9.66933470831044e+00 -3.00592728683480e+00
  1.07161397488422e+01 -3.00592728683482e+00
  1.20533246150248e+01 -3.00592728683479e+00
  1.37566431125088e+01 -3.00592728683481e+00
  1.59185954267671e+01 -3.00592728683481e+00
  1.86502516606242e+01 -3.00592728683480e+00
  2.20820368459593e+01 -3.00592728683481e+00
  2.63625587615614e+01 -3.00592728683480e+00
  3.16542365000880e+01 -3.00592728683481e+00
  3.81242612536035e+01 -3.00592728683480e+00
  4.59295083463157e+01 -3.00592728683480e+00
  5.51947328738337e+01 -3.00592728683481e+00
  6.59850260338743e+01 -3.00592728683481e+00
  7.82761354604328e+01 -3.00592728683480e+00
  9.19292969216995e+01 -3.00592728683480e+00
  1.06679292215414e+02 -3.00592728683480e+00
  1.22143674307077e+02 -3.00592728683480e+00
  6.00134926232909e+00 -2.63062257400689e+00
  6.00443926983788e+00 -2.63062257400869e+00
  6.00842581389302e+00 -2.63062257400685e+00
  6.01356897288162e+00 -2.63062257400844e+00
  6.02020424314538e+00 -2.63062257400756e+00
  6.02876438977781e+00 -2.63062257400708e+00
  6.03980761543350e+00 -2.63062257400750e+00
  6.05405386568207e+00 -2.63062257400795e+00
  6.07243160707063e+00 -2.63062257400767e+00
  6.09613807550453e+00 -2.63062257400750e+00
  6.12671683502143e+00 -2.63062257400766e+00
  6.16615755588891e+00 -2.63062257400765e+00
  6.21702426994185e+00 -2.63062257400769e+00
  6.28262005181550e+00 -2.63062257400767e+00
  6.36719817398093e+00 -2.63062257400764e+00
  6.47623235621733e+00 -2.63062257400763e+00
  6.61676182618446e+00 -2.63062257400765e+00
  6.79783053570918e+00 -2.63062257400768e+00
  7.03104395921643e+00 -2.63062257400764e+00
  7.33127119365335e+00 -2.63062257400766e+00
  7.71752404739033e+00 -2.63062257400764e+00
  8.21404741553600e+00 -2.63062257400765e+00
  8.85165464718436e+00 -2.63062257400765e+00
  9.66933470831044e+00 -2.63062257400765e+00
  1.07161397488421e+01 -2.63062257400765e+00
  1.20533246150249e+01 -2.63062257400766e+00
  1.37566431125088e+01 -2.63062257400765e+00
  1.59185954267671e+01 -2.63062257400765e+00
  1.86502516606242e+01 -2.63062257400765e+00
  2.20820368459592e+01 -2.63062257400765e+00
  2.63625587615614e+01 -2.63062257400765e+00
  3.16542365000880e+01 -2.63062257400765e+00
  3.81242612536034e+01 -2.63062257400765e+00
  4.59295083463158e+01 -2.63062257400765e+00
  5.51947328738336e+01 -2.63062257400765e+00
  6.59850260338741e+01 -2.63062257400765e+00
  7.82761354604329e+01 -2.63062257400765e+00
  9.19292969216996e+01 -2.63062257400765e+00
  1.06679292215414e+02 -2.63062257400765e+00
  1.22143674307077e+02 -2.63062257400765e+00
  6.00134926233182e+00 -2.11737100142732e+00
  6.00443926983408e+00 -2.11737100142686e+00
  6.00842581389621e+00 -2.11737100142768e+00
  6.01356897287945e+00 -2.11737100142715e+00
  6.02020424314479e+00 -2.11737100142697e+00
  6.02876438977936e+00 -2.11737100142728e+00
  6.03980761543463e+00 -2.11737100142741e+00
  6.05405386568100e+00 -2.11737100142713e+00
  6.07243160707041e+00 -2.11737100142716e+00
  6.09613807550511e+00 -2.11737100142729e+00
  6.12671683502134e+00 -2.11737100142720e+00
  6.16615755588885e+00 -2.11737100142721e+00
  6.21702426994178e+00 -2.11737100142724e+00
  6.28262005181541e+00 -2.11737100142723e+00
  6.36719817398099e+00 -2.11737100142722e+00
  6.47623235621736e+00 -2.11737100142721e+00
  6.61676182618446e+00 -2.11737100142722e+00
  6.79783053570908e+00 -2.11737100142721e+00
  7.03104395921648e+00 -2.11737100142722e+00
  7.33127119365334e+00 -2.11737100142722e+00
  7.71752404739037e+00 -2.11737100142722e+00
  8.21404741553600e+00 -2.11737100142722e+00
  8.85165464718435e+00 -2.11737100142722e+00
  9.66933470831046e+00 -2.11737100142722e+00
  1.07161397488421e+01 -2.11737100142722e+00
  1.20533246150249e+01 -2.11737100142722e+00
  1.37566431125088e+01 -2.11737100142722e+00
  1.59185954267671e+01 -2.11737100142722e+00
  1.86502516606242e+01 -2.11737100142722e+00
  2.20820368459592e+01 -2.11737100142722e+00
  2.63625587615614e+01 -2.11737100142722e+00
  3.16542365000880e+01 -2.11737100142722e+00
  3.81242612536035e+01 -2.11737100142722e+00
  4.59295083463157e+01 -2.11737100142722e+00
  5.51947328738336e+01 -2.11737100142722e+00
  6.59850260338742e+01 -2.11737100142722e+00
  7.82761354604329e+01 -2.11737100142722e+00
  9.19292969216994e+01 -2.11737100142722e+00
  1.06679292215414e+02 -2.11737100142722e+00
  1.22143674307078e+02 -2.11737100142722e+00
  6.00134926233069e+00 -1.41639501056379e+00
  6.00443926983561e+00 -1.41639501056384e+00
  6.00842581389392e+00 -1.41639501056366e+00
  6.01356897287977e+00 -1.41639501056383e+00
  6.02020424314585e+00 -1.41639501056384e+00
  6.02876438977928e+00 -1.41639501056380e+00
  6.03980761543364e+00 -1.41639501056373e+00
  6.05405386568141e+00 -1.41639501056381e+00
  6.07243160707064e+00 -1.41639501056382e+00
  6.09613807550503e+00 -1.41639501056380e+00
  6.12671683502133e+00 -1.41639501056381e+00
  6.16615755588887e+00 -1.41639501056378e+00
  6.21702426994168e+00 -1.41639501056381e+00
  6.28262005181542e+00 -1.41639501056380e+00
  6.36719817398097e+00 -1.41639501056381e+00
  6.47623235621740e+00 -1.41639501056381e+00
  6.61676182618448e+00 -1.41639501056381e+00
  6.79783053570908e+00 -1.41639501056380e+00
  7.03104395921647e+00 -1.41639501056380e+00
  7.33127119365333e+00 -1.41639501056380e+00
  7.71752404739036e+00 -1.41639501056380e+00
  8.21404741553600e+00 -1.41639501056380e+00
  8.85165464718435e+00 -1.41639501056380e+00
  9.66933470831046e+00 -1.41639501056380e+00
  1.07161397488421e+01 -1.41639501056380e+00
  1.20533246150249e+01 -1.41639501056380e+00
  1.37566431125088e+01 -1.41639501056380e+00
  1.59185954267671e+01 -1.41639501056380e+00
  1.86502516606242e+01 -1.41639501056380e+00
  2.20820368459592e+01 -1.41639501056380e+00
  2.63625587615615e+01 -1.41639501056380e+00
  3.16542365000880e+01 -1.41639501056380e+00
  3.81242612536035e+01 -1.41639501056380e+00
  4.59295083463157e+01 -1.41639501056380e+00
  5.51947328738336e+01 -1.41639501056380e+00
  6.59850260338742e+01 -1.41639501056380e+00
  7.82761354604328e+01 -1.41639501056380e+00
  9.19292969216995e+01 -1.41639501056380e+00
  1.06679292215414e+02 -1.41639501056380e+00
  1.22143674307077e+02 -1.41639501056380e+00
  6.00134926233229e+00 -4.60757239736106e-01
  6.00443926983429e+00 -4.60757239736032e-01
  6.00842581389520e+00 -4.60757239736092e-01
  6.01356897287985e+00 -4.60757239736055e-01
  6.02020424314529e+00 -4.60757239736059e-01
  6.02876438977917e+00 -4.60757239736064e-01
  6.03980761543407e+00 -4.60757239736061e-01
  6.05405386568130e+00 -4.60757239736061e-01
  6.07243160707058e+00 -4.60757239736071e-01
  6.09613807550494e+00 -4.60757239736062e-01
  6.12671683502133e+00 -4.60757239736070e-01
  6.16615755588893e+00 -4.60757239736068e-01
  6.21702426994173e+00 -4.60757239736067e-01
  6.28262005181543e+00 -4.60757239736068e-01
  6.36719817398094e+00 -4.60757239736067e-01
  6.47623235621739e+00 -4.60757239736065e-01
  6.61676182618447e+00 -4.60757239736066e-01
  6.79783053570909e+00 -4.60757239736066e-01
  7.03104395921647e+00 -4.60757239736066e-01
  7.33127119365333e+00 -4.60757239736066e-01
  7.71752404739037e+00 -4.60757239736066e-01
  8.21404741553600e+00 -4.60757239736066e-01
  8.85165464718435e+00 -4.60757239736067e-01