TITLE = "CFFC: 2D Structured Curvilinear Grid Block (Cell Locations)"
VARIABLES = "x" \ 
"y" 
ZONE T =  "Block Number = 0" \ 
I = 40 \ 
J = 30 \ 
F = POINT 
  1.18982524753855e+01 -4.02860839052065e+00
  1.16941564388476e+01 -4.02916049217489e+00
  1.14870282650224e+01 -4.02957757058497e+00
  1.12768629874865e+01 -4.02992153340859e+00
  1.10636758931232e+01 -4.03023441891890e+00
  1.08474945912051e+01 -4.03054819373894e+00
  1.06283505523168e+01 -4.03088366806773e+00
  1.04062782146685e+01 -4.03125409508232e+00
  1.01813153121891e+01 -4.03166810756053e+00
  9.95350315981207e+00 -4.03213147940275e+00
  9.72288677868462e+00 -4.03264811192862e+00
  9.48951491438482e+00 -4.03322058935740e+00
  9.25344000171700e+00 -4.03385050190630e+00
  9.01471810894445e+00 -4.03453863735402e+00
  8.77340887767102e+00 -4.03528509078514e+00
  8.52957546389890e+00 -4.03608931857880e+00
  8.28328448007844e+00 -4.03695015276702e+00
  8.03460593599248e+00 -4.03786578763238e+00
  7.78361317615234e+00 -4.03883374799191e+00
  7.53038281204522e+00 -4.03985084694231e+00
  7.27499464833220e+00 -4.04091313958472e+00
  7.01753160456224e+00 -4.04201587669267e+00
  6.75807963376462e+00 -4.04315345869663e+00
  6.49672763154112e+00 -4.04431939515280e+00
  6.23356734433969e+00 -4.04550627262250e+00
  5.96869327721626e+00 -4.04670572498696e+00
  5.70220258540883e+00 -4.04790841543719e+00
  5.43419497972300e+00 -4.04910402307554e+00
  5.16477260804886e+00 -4.05028123486669e+00
  4.89403995721322e+00 -4.05142773328453e+00
  4.62210373962118e+00 -4.05253016004678e+00
  4.34907281010062e+00 -4.05357402169347e+00
  4.07505811918868e+00 -4.05454344313465e+00
  3.80017275024797e+00 -4.05542060976908e+00
  3.52453212334193e+00 -4.05618457885915e+00
  3.24825444483858e+00 -4.05680891747478e+00
  2.97146128496588e+00 -4.05725753692506e+00
  2.69427704075558e+00 -4.05747916030148e+00
  2.41682351141424e+00 -4.05740451522035e+00
  2.13923796905281e+00 -4.05691325421518e+00
  1.18979399104385e+01 -4.08627067774509e+00
  1.16931151984521e+01 -4.08814002811599e+00
  1.14855963232522e+01 -4.08975219991492e+00
  1.12751714144575e+01 -4.09109353462887e+00
  1.10618008070583e+01 -4.09225943692961e+00
  1.08454840510637e+01 -4.09335629419944e+00
  1.06262363511041e+01 -4.09446587660372e+00
  1.04040819695020e+01 -4.09564518675079e+00
  1.01790521421326e+01 -4.09693294547100e+00
  9.95118420416267e+00 -4.09835528519264e+00
  9.72052100806741e+00 -4.09992968281589e+00
  9.48711041829458e+00 -4.10166752725597e+00
  9.25100485888383e+00 -4.10357578523370e+00
  9.01226092765002e+00 -4.10565807666385e+00
  8.77093908440683e+00 -4.10791534688431e+00
  8.52710340748073e+00 -4.11034625295243e+00
  8.28082140418590e+00 -4.11294734613386e+00
  8.03216385887840e+00 -4.11571311345837e+00
  7.78120470479664e+00 -4.11863592751580e+00
  7.52802091043126e+00 -4.12170594242991e+00
  7.27269237560652e+00 -4.12491096472422e+00
  7.01530183583110e+00 -4.12823631731951e+00
  6.75593477510468e+00 -4.13166470428164e+00
  6.49467934835532e+00 -4.13517609074094e+00
  6.23162631444149e+00 -4.13874760576748e+00
  5.96686898030497e+00 -4.14235345646820e+00
  5.70050315762207e+00 -4.14596486747668e+00
  5.43262713002945e+00 -4.14955002374550e+00
  5.16334163601876e+00 -4.15307399855268e+00
  4.89274986745407e+00 -4.15649861338498e+00
  4.62095749793505e+00 -4.15978212745318e+00
  4.34807275594049e+00 -4.16287857972724e+00
  4.07420657451965e+00 -4.16573641802028e+00
  3.79947284528761e+00 -4.16829582922501e+00
  3.52398873658028e+00 -4.17048383103848e+00
  3.24787470818396e+00 -4.17220605682969e+00
  2.97125268276076e+00 -4.17333563437882e+00
  2.69423728575899e+00 -4.17370721142393e+00
  2.41690486951506e+00 -4.17314737145603e+00
  2.13917312391619e+00 -4.17157505239441e+00
  1.18976415823936e+01 -4.14481513835504e+00
  1.16920669164817e+01 -4.14820567039483e+00
  1.14839261997680e+01 -4.15145956415163e+00
  1.12730142079760e+01 -4.15419971611245e+00
  1.10592768187635e+01 -4.15652261605816e+00
  1.08426875207736e+01 -4.15861563108221e+00
  1.06232360640483e+01 -4.16064333138109e+00
  1.04009264644422e+01 -4.16272794336703e+00
  1.01757754378339e+01 -4.16495506571729e+00
  9.94781070910402e+00 -4.16738308617487e+00
  9.71706933377833e+00 -4.17005100617640e+00
  9.48359615659929e+00 -4.17298408825295e+00
  9.24744248288399e+00 -4.17619775851485e+00
  9.00866499745684e+00 -4.17970023653539e+00
  8.76732492868909e+00 -4.18349424129621e+00
  8.52348742670994e+00 -4.18757802320790e+00
  8.27722110982865e+00 -4.19194591208275e+00
  8.02859773212815e+00 -4.19658853105280e+00
  7.77769193323849e+00 -4.20149279364847e+00
  7.52458104339578e+00 -4.20664177243004e+00
  7.26934492827886e+00 -4.21201450294336e+00
  7.01206586645154e+00 -4.21758576455891e+00
  6.75282845760821e+00 -4.22332586171144e+00
  6.49171956406678e+00 -4.22920042834822e+00
  6.22882828466504e+00 -4.23517026706333e+00
  5.96424596181223e+00 -4.24119121300358e+00
  5.69806622501262e+00 -4.24721402530875e+00
  5.43038506108279e+00 -4.25318426647186e+00
  5.16130092028281e+00 -4.25904210875457e+00
  4.89091484585357e+00 -4.26472193987172e+00
  4.61933064186265e+00 -4.27015153420515e+00
  4.34665507577972e+00 -4.27525038967672e+00
  4.07299812418609e+00 -4.27992652384666e+00
  3.79847322482774e+00 -4.28407066683417e+00
  3.52319733530911e+00 -4.28754648590598e+00
  3.24729006389327e+00 -4.29017621641114e+00
  2.97086955298185e+00 -4.29172615144472e+00
  2.69403840638977e+00 -4.29191549594617e+00
  2.41683966117054e+00 -4.29052964989274e+00
  2.13910613208173e+00 -4.28788054855224e+00
  1.18973746166488e+01 -4.20417277795333e+00
  1.16910880081790e+01 -4.20903016390806e+00
  1.14822616677231e+01 -4.21399267665838e+00
  1.12707904084619e+01 -4.21822250378675e+00
  1.10566224743611e+01 -4.22178591031990e+00
  1.08397090812019e+01 -4.22494189474863e+00
  1.06200137521077e+01 -4.22793767762651e+00
  1.03975180676715e+01 -4.23096402296389e+00
  1.01722220183032e+01 -4.23415731709119e+00
  9.94414197507915e+00 -4.23761154656477e+00
  9.71330798452618e+00 -4.24138971927054e+00
  9.47976111147987e+00 -4.24553265545697e+00
  9.24355111750234e+00 -4.25006529952849e+00
  9.00473457389900e+00 -4.25500108057839e+00
  8.76337341114564e+00 -4.26034479557389e+00
  8.51953385067500e+00 -4.26609439154371e+00
  8.27328563898370e+00 -4.27224194956227e+00
  8.02470150210448e+00 -4.27877411595570e+00
  7.77385675230897e+00 -4.28567217413147e+00
  7.52082899912259e+00 -4.29291190221657e+00
  7.26569793612252e+00 -4.30046331978915e+00
  7.00854518954312e+00 -4.30829039188731e+00
  6.74945422423242e+00 -4.31635073221774e+00
  6.48851030855163e+00 -4.32459533714284e+00
  6.22580053738416e+00 -4.33296836600091e+00
  5.96141391355759e+00 -4.34140696093148e+00
  5.69544148853797e+00 -4.34984109540082e+00
  5.42797655095968e+00 -4.35819339354977e+00
  5.15911486494294e+00 -4.36637881457828e+00
  4.88895494063470e+00 -4.37430399847017e+00
  4.61759833762580e+00 -4.38186591168847e+00
  4.34514998032758e+00 -4.38894918852738e+00
  4.07171845664506e+00 -4.39542118354743e+00
  3.79741619310979e+00 -4.40112335233602e+00
  3.52235916773430e+00 -4.40585751464908e+00
  3.24666516193125e+00 -4.40936743001080e+00
  2.97044775668081e+00 -4.41132490905403e+00
  2.69379844468903e+00 -4.41135957476372e+00
  2.41673520423841e+00 -4.40926283518661e+00
  2.13905069350704e+00 -4.40579543493346e+00
  1.18971385766248e+01 -4.26431525114023e+00
  1.16902045232702e+01 -4.27048989737358e+00
  1.14806956414881e+01 -4.27707424964670e+00
  1.12686549397092e+01 -4.28275391512191e+00
  1.10540429692096e+01 -4.28754429986420e+00
  1.08367915539790e+01 -4.29176312926629e+00
  1.06168392605412e+01 -4.29573284239040e+00
  1.03941457514900e+01 -4.29970901070777e+00
  1.01686944243176e+01 -4.30387720348310e+00
  9.94049026683686e+00 -4.30836644795494e+00
  9.70955624042846e+00 -4.31326364410804e+00
  9.47592955624328e+00 -4.31862520544636e+00
  9.23965837557043e+00 -4.32448565217455e+00
  9.00079911603225e+00 -4.33086365430830e+00
  8.75941437911345e+00 -4.33776607949422e+00
  8.51557142658044e+00 -4.34519052717597e+00
  8.26934109389684e+00 -4.35312675530654e+00
  8.02079702490112e+00 -4.36155733649566e+00
  7.77001513079518e+00 -4.37045781167767e+00
  7.51707320443198e+00 -4.37979654286898e+00
  7.26205064822807e+00 -4.38953440801981e+00
  7.00502829474253e+00 -4.39962443312567e+00
  6.74608831262332e+00 -4.41001142202365e+00
  6.48531419812383e+00 -4.42063162481734e+00
  6.22279085158072e+00 -4.43141246541559e+00
  5.95860473827570e+00 -4.44227232447943e+00
  5.69284413124507e+00 -4.45312035624588e+00
  5.42559942325482e+00 -4.46385626525686e+00
  5.15696350068402e+00 -4.47436989937002e+00
  4.88703215653063e+00 -4.48454039196986e+00
  4.61590452619154e+00 -4.49423439048636e+00
  4.34368350685496e+00 -4.50330261640828e+00
  4.07047609431632e+00 -4.51157359571292e+00
  3.79639346743281e+00 -4.51884304321607e+00
  3.52155036979108e+00 -4.52485765415509e+00
  3.24606259411226e+00 -4.52929504094852e+00
  2.97003943498350e+00 -4.53175347828386e+00
  2.69356289740341e+00 -4.53180368491438e+00
  2.41663172333781e+00 -4.52927240867819e+00
  2.13901141541631e+00 -4.52530800185249e+00
  1.18969284683885e+01 -4.32523275312459e+00
  1.16894138660768e+01 -4.33255179345511e+00
  1.14792541284397e+01 -4.34061237499887e+00
  1.12666591788047e+01 -4.34764942970543e+00
  1.10516096596137e+01 -4.35361333926580e+00
  1.08340212722659e+01 -4.35886669616933e+00
  1.06138097534785e+01 -4.36379722546767e+00
  1.03909143458638e+01 -4.36871898335508e+00
  1.01653028610215e+01 -4.37386295708367e+00
  9.93696954565369e+00 -4.37939105248915e+00
  9.70593066420311e+00 -4.38541284266418e+00
  9.47221979296637e+00 -4.39199965193017e+00
  9.23588360230462e+00 -4.39919519121043e+00
  8.99697839653262e+00 -4.40702314547287e+00
  8.75556744532898e+00 -4.41549230752089e+00
  8.51171902005827e+00 -4.42459982091635e+00
  8.26550499481275e+00 -4.43433302732066e+00
  8.01699986551951e+00 -4.44467033784843e+00
  7.76628006329222e+00 -4.45558146571229e+00
  7.51342347338803e+00 -4.46702727492749e+00
  7.25850910554841e+00 -4.47895942597691e+00
  7.00161688820471e+00 -4.49131993971997e+00
  6.74282757640873e+00 -4.50404075775151e+00
  6.48222277232621e+00 -4.51704335006970e+00
  6.21988505771362e+00 -4.53023839646028e+00
  5.95589823665727e+00 -4.54352554149821e+00
  5.69034768295192e+00 -4.55679319525987e+00
  5.42332077706878e+00 -4.56991829429100e+00
  5.15490741675992e+00 -4.58276585232906e+00
  4.88520057184116e+00 -4.59518798905537e+00
  4.61429685054123e+00 -4.60702190679339e+00
  4.34229701972355e+00 -4.61808597238981e+00
  4.06930637907386e+00 -4.62817266953682e+00
  3.79543476673643e+00 -4.63703693135414e+00
  3.52079565896493e+00 -4.64437898715744e+00
  3.24550302165940e+00 -4.64982478117067e+00
  2.96966252010978e+00 -4.65292125540306e+00
  2.69334842905297e+00 -4.65320816717066e+00
  2.41654390863493e+00 -4.65056092120191e+00
  2.13898703998621e+00 -4.64641069520585e+00
  1.18967393179011e+01 -4.38691922227993e+00
  1.16887039923420e+01 -4.39521454344179e+00
  1.14779364667932e+01 -4.40458705830514e+00
  1.12648135229630e+01 -4.41286808421231e+00
  1.10493414677868e+01 -4.41993488980445e+00
  1.08314234366430e+01 -4.42618177958947e+00
  1.06109549196627e+01 -4.43205122148096e+00
  1.03878566607678e+01 -4.43790852602874e+00
  1.01620822546934e+01 -4.44402547319618e+00
  9.93361613269521e+00 -4.45059399652820e+00
  9.70246845421532e+00 -4.45774462474438e+00
  9.46866951442690e+00 -4.46556257544328e+00
  9.23226468439277e+00 -4.47410015407893e+00
  8.99331024113057e+00 -4.48338571051968e+00
  8.75187014228727e+00 -4.49342975087363e+00
  8.50801364795726e+00 -4.50422882483898e+00
  8.26181362492894e+00 -4.51576775738388e+00
  8.01334535916651e+00 -4.52802071653073e+00
  7.76268572859806e+00 -4.54095151669269e+00
  7.50991262970340e+00 -4.55451346093665e+00
  7.25510459237168e+00 -4.56864893835063e+00
  6.99834054950459e+00 -4.58328892239997e+00
  6.73969974855092e+00 -4.59835246532473e+00
  6.47926180268129e+00 -4.61374624983002e+00
  6.21710688079072e+00 -4.62936423143228e+00
  5.95331603338891e+00 -4.64508737622997e+00
  5.68797164579664e+00 -4.66078346459930e+00
  5.42115800053740e+00 -4.67630687018191e+00
  5.15296192514364e+00 -4.69149812943869e+00
  4.88347348822927e+00 -4.70618296660552e+00
  4.61278669644621e+00 -4.72017021284940e+00
  4.34100011683061e+00 -4.73324774887754e+00
  4.06821729575217e+00 -4.74517525148873e+00
  3.79454670930049e+00 -4.75567239658506e+00
  3.52010064047326e+00 -4.76440211567695e+00
  3.24499152534419e+00 -4.77095311200451e+00
  2.96932214922792e+00 -4.77484145132843e+00
  2.69316054351037e+00 -4.77559817659572e+00
  2.41647606839827e+00 -4.77314764157518e+00
  2.13897470240398e+00 -4.76909007559724e+00
  1.18965671764134e+01 -4.44936617271489e+00
  1.16880622874220e+01 -4.45848302422634e+00
  1.14767334270352e+01 -4.46900164703656e+00
  1.12631136687258e+01 -4.47840572524526e+00
  1.10472381494796e+01 -4.48649694192938e+00
  1.08290008184997e+01 -4.49368989935578e+00
  1.06082796589797e+01 -4.50047158630548e+00
  1.03849790240118e+01 -4.50725115081063e+00
  1.01590398322012e+01 -4.51433620746695e+00
  9.93043776774746e+00 -4.52194554288721e+00
  9.69917758598140e+00 -4.53022866565490e+00
  9.46528673205914e+00 -4.53928348509627e+00
  9.22880952102381e+00 -4.54917018471528e+00
  8.98980232157506e+00 -4.55992135706800e+00
  8.74832981975641e+00 -4.57154897105818e+00
  8.50446225702536e+00 -4.58404882781147e+00
  8.25827345700654e+00 -4.59740313202553e+00
  8.00983944276827e+00 -4.61158173172174e+00
  7.75923747555319e+00 -4.62654248027005e+00
  7.50654539271045e+00 -4.64223106749484e+00
  7.25184116937984e+00 -4.65858056816659e+00
  6.99520266505440e+00 -4.67551087648233e+00
  6.73670753998049e+00 -4.69292813754991e+00
  6.47643333810435e+00 -4.71072424779442e+00
  6.21445773548271e+00 -4.72877646578738e+00
  5.95085894995251e+00 -4.74694714495057e+00
  5.68571630077812e+00 -4.76508356199928e+00
  5.41911089667898e+00 -4.78301775261478e+00
  5.15112642139042e+00 -4.80056616862605e+00
  4.88184997158150e+00 -4.81752881967541e+00
  4.61137288650392e+00 -4.83368734141690e+00
  4.33979147749487e+00 -4.84880114382155e+00
  4.06720750428584e+00 -4.86260050418590e+00
  3.79372809862596e+00 -4.87477546974351e+00
  3.51946447687399e+00 -4.88496062420517e+00
  3.24452788335419e+00 -4.89272076352166e+00
  2.96901891245599e+00 -4.89755856052841e+00
  2.69300041961163e+00 -4.89901237652685e+00
  2.41642849935195e+00 -4.89704686460003e+00
  2.13897192670116e+00 -4.89332449533871e+00
  1.18964091261088e+01 -4.51256116314027e+00
  1.16874783589646e+01 -4.52235924079295e+00
  1.14756344061384e+01 -4.53386375472660e+00
  1.12615510738185e+01 -4.54426864625484e+00
  1.10452932879953e+01 -4.55330220995377e+00
  1.08267486921554e+01 -4.56139009525915e+00
  1.06057804493220e+01 -4.56905437841118e+00
  1.03822786895794e+01 -4.57674079376470e+00
  1.01561732836675e+01 -4.58478774720341e+00
  9.92743232257485e+00 -4.59343754665853e+00
  9.69605593006601e+00 -4.60285655411768e+00
  9.46206918735970e+00 -4.61315405169861e+00
  9.22551563659950e+00 -4.62439730370786e+00
  8.98645188520192e+00 -4.63662267330321e+00
  8.74494340795340e+00 -4.64984331477697e+00
  8.50106143515969e+00 -4.66405411470448e+00
  8.25488072356294e+00 -4.67923455248906e+00
  8.00647799140171e+00 -4.69535008338011e+00
  7.75593083045678e+00 -4.71235254423417e+00
  7.50331695944265e+00 -4.73017996679467e+00
  7.24871373474375e+00 -4.74875607536205e+00
  6.99219787527979e+00 -4.76798965822223e+00
  6.73384538453413e+00 -4.78777393874410e+00
  6.47373166584968e+00 -4.80798602905483e+00
  6.21193182954957e+00 -4.82848651703638e+00
  5.94852118657887e+00 -4.84911920706394e+00
  5.68357591491043e+00 -4.86971099664277e+00
  5.41717387351400e+00 -4.89007181025970e+00
  5.14939552669838e+00 -4.90999441685551e+00
  4.88032492574162e+00 -4.92925381254064e+00
  4.61005067541561e+00 -4.94760564459064e+00
  4.33866677877538e+00 -4.96478289697965e+00
  4.06627318672820e+00 -4.98048983365767e+00
  3.79297572430825e+00 -4.99439230409401e+00
  3.51888468852378e+00 -5.00610484780712e+00
  3.24411046000241e+00 -5.01518008945342e+00
  2.96875200924410e+00 -5.02112150245501e+00
  2.69286769670030e+00 -5.02348532605538e+00
  2.41640022484236e+00 -5.02226281521579e+00
  2.13897704742347e+00 -5.01908500007469e+00
  1.18962630751530e+01 -4.57648797497672e+00
  1.16869443834809e+01 -4.58684003977225e+00
  1.14746299161900e+01 -4.59917848029529e+00
  1.12601169068982e+01 -4.61046363161396e+00
  1.10434992330824e+01 -4.62035614928937e+00
  1.08246604780347e+01 -4.62928565702797e+00
  1.06034514982148e+01 -4.63780087379739e+00
  1.03797503572446e+01 -4.64637721594592e+00
  1.01534775503555e+01 -4.65537888610357e+00
  9.92459478679078e+00 -4.66506831642293e+00
  9.69309838522246e+00 -4.67562650463822e+00
  9.45901159328829e+00 -4.68717270615648e+00
  9.22237749742424e+00 -4.69978040990917e+00
  8.98325311630979e+00 -4.71348924007233e+00
  8.74170479304491e+00 -4.72831323862445e+00
  8.49780476944594e+00 -4.74424620359170e+00
  8.25162872444391e+00 -4.76126478390567e+00
  8.00325404105384e+00 -4.77932997355087e+00
  7.75275859974896e+00 -4.79838754361394e+00
  7.50021995154966e+00 -4.81836782926504e+00
  7.24571477995170e+00 -4.83918517345115e+00
  6.98931860501981e+00 -4.86073723519196e+00
  6.73110571135775e+00 -4.88290430229116e+00
  6.47114929571793e+00 -4.90554870247571e+00
  6.20952183265591e+00 -4.92851437416726e+00
  5.94629565194095e+00 -4.95162662862351e+00
  5.68154371182295e+00 -4.97469209874320e+00
  5.41534053950365e+00 -4.99749881332278e+00
  5.14776329593799e+00 -5.01981624765586e+00
  4.87889290445892e+00 -5.04139506932340e+00
  4.60881516038285e+00 -5.06196611514800e+00
  4.33762170179929e+00 -5.08123791821281e+00
  4.06541065029273e+00 -5.09889194040261e+00
  3.79228656805117e+00 -5.11457484806804e+00
  3.51835898052796e+00 -5.12788852959102e+00
  3.24373769817006e+00 -5.13838337104330e+00
  2.96852050666125e+00 -5.14557470519566e+00
  2.69276166982334e+00 -5.14904292580618e+00
  2.41639011597185e+00 -5.14879016040906e+00
  2.13898907655620e+00 -5.14633680660113e+00
  1.18961275536843e+01 -4.64112719044797e+00
  1.16864547194294e+01 -4.65191714773355e+00
  1.14737122478845e+01 -4.66494639419258e+00
  1.12588034394581e+01 -4.67699441264140e+00
  1.10418489316015e+01 -4.68766248354860e+00
  1.08227298521476e+01 -4.69737910569509e+00
  1.06012870398763e+01 -4.70671222652566e+00
  1.03773886008470e+01 -4.71616047364260e+00
  1.01509473477863e+01 -4.72610897900265e+00
  9.92191986154639e+00 -4.73683689518792e+00
  9.69029952560492e+00 -4.74853758688289e+00
  9.45610832197432e+00 -4.76133882843700e+00
  9.21938922872186e+00 -4.77531943401954e+00
  8.98019987179026e+00 -4.79052175094877e+00
  8.73860756058686e+00 -4.80696039611064e+00
  8.49468558605584e+00 -4.82462789976699e+00
  8.24851055122984e+00 -4.84349797648695e+00
  8.00016048508590e+00 -4.86352709543418e+00
  7.74971352568052e+00 -4.88465491906074e+00
  7.49724701722713e+00 -4.90680405371020e+00
  7.24283692512059e+00 -4.92987943500760e+00
  6.98655751973371e+00 -4.95376757206896e+00
  6.72848131008113e+00 -4.97833580318430e+00
  6.46867922314156e+00 -5.00343166812351e+00
  6.20722102730432e+00 -5.02888246979694e+00
  5.94417599299412e+00 -5.05449507073814e+00
  5.67961377277111e+00 -5.08005593734024e+00
  5.41360546916741e+00 -5.10533139531128e+00
  5.14622484239245e+00 -5.13006798288915e+00
  4.87754959066024e+00 -5.15399267390368e+00
  4.60766261103092e+00 -5.17681258736610e+00
  4.33665310908844e+00 -5.19821362325208e+00
  4.06461735000239e+00 -5.21785735051626e+00
  3.79165867259570e+00 -5.23537568801263e+00
  3.51788596671509e+00 -5.25036419727389e+00
  3.24340872421584e+00 -5.26237912308841e+00
  2.96832387904607e+00 -5.27095594651072e+00
  2.69268182396300e+00 -5.27570240322667e+00
  2.41639731010555e+00 -5.27661578576375e+00
  2.13900748438190e+00 -5.27504048843068e+00
  1.18960015556020e+01 -4.70645672658057e+00
  1.16860054247749e+01 -4.71757780215718e+00
  1.14728755011731e+01 -4.73116323446344e+00
  1.12576044737924e+01 -4.74386055364407e+00
  1.10403365805864e+01 -4.75522159404259e+00
  1.08209515252153e+01 -4.76567030695914e+00
  1.05992821894441e+01 -4.77578743367225e+00
  1.03751887708415e+01 -4.78608880428880e+00
  1.01485781018817e+01 -4.79697578479247e+00
  9.91940292079619e+00 -4.80874087811445e+00
  9.68765458179695e+00 -4.82158752634074e+00
  9.45335440159612e+00 -4.83565053442540e+00
  9.21654562394292e+00 -4.85101311262613e+00
  8.97728669954005e+00 -4.86771977358097e+00
  8.73564601942699e+00 -4.88578538620271e+00
  8.49169797578086e+00 -4.90520103151629e+00
  8.24552011024990e+00 -4.92593738886377e+00
  7.99719109034428e+00 -4.94794634502163e+00
  7.74678929099859e+00 -4.97116141798606e+00
  7.49439181990785e+00 -4.99549745969506e+00
  7.24007388714388e+00 -5.02084997764169e+00
  6.98390846865728e+00 -5.04709431320660e+00
  6.72596624475511e+00 -5.07408484093692e+00
  6.46631580986983e+00 -5.10165430498103e+00
  6.20502415251820e+00 -5.12961337789775e+00
  5.94215739819231e+00 -5.15775050320086e+00
  5.67778179616841e+00 -5.18583205629649e+00
  5.41196491589914e+00 -5.21360281836585e+00
  5.14477700089841e+00 -5.24078669501684e+00
  4.87629240690836e+00 -5.26708751815810e+00
  4.60659102401494e+00 -5.29218964413275e+00
  4.33575954008659e+00 -5.31575792224625e+00
  4.06389232241133e+00 -5.33743652964437e+00
  3.79109151307470e+00 -5.35684637345470e+00
  3.51746548360962e+00 -5.37358185642521e+00
  3.24312361987925e+00 -5.38721140570883e+00
  2.96816226354552e+00 -5.39729659081495e+00
  2.69262808018215e+00 -5.40347359523665e+00
  2.41642133975920e+00 -5.40572046662699e+00
  2.13903203279441e+00 -5.40515276419929e+00
  1.18958844263418e+01 -4.77245222883308e+00
  1.16855938658952e+01 -4.78380539576249e+00
  1.14721154389781e+01 -4.79782014108625e+00
  1.12565154265698e+01 -4.81105722622721e+00
  1.10389578407225e+01 -4.82302999205133e+00
  1.08193215216151e+01 -4.83415577682587e+00
  1.05974332550263e+01 -4.84502255701186e+00
  1.03731473244758e+01 -4.85615780850593e+00
  1.01463662906586e+01 -4.86797463047363e+00
  9.91704036167032e+00 -4.88077556803356e+00
  9.68515979867554e+00 -4.89477185473200e+00
  9.45074588103975e+00 -4.91010382192182e+00
  9.21384251565716e+00 -4.92685812952912e+00
  8.97450921477900e+00 -4.94508088585898e+00
  8.73281558253040e+00 -4.96478688405791e+00
  8.48883717820033e+00 -4.98596557541425e+00
  8.24265250880949e+00 -5.00858450829599e+00
  7.99434088404180e+00 -5.03259093690639e+00
  7.74398090506032e+00 -5.05791220704223e+00
  7.49164942209605e+00 -5.08445539809983e+00
  7.23742085978087e+00 -5.11210657445630e+00
  6.98136685970278e+00 -5.14072989524153e+00
  6.72355622212851e+00 -5.17016675702223e+00
  6.46405514424896e+00 -5.20023509637742e+00
  6.20292775475149e+00 -5.23072895080719e+00
  5.94023693763179e+00 -5.26141835707893e+00
  5.67604542547739e+00 -5.29204964683924e+00
  5.41041712596114e+00 -5.32234617054892e+00
  5.14341862603435e+00 -5.35200943466957e+00
  4.87512079551043e+00 -5.38072056708007e+00
  4.60560038236885e+00 -5.40814193106180e+00
  4.33494144678955e+00 -5.43391860352472e+00
  4.06323639484859e+00 -5.45767937528548e+00
  3.79058617880799e+00 -5.47903708838819e+00
  3.51709874751176e+00 -5.49758895597575e+00
  3.24288356298326e+00 -5.51292023975403e+00
  2.96803659410679e+00 -5.52462258278859e+00
  2.69260091022330e+00 -5.53236041333269e+00
  2.41646215133748e+00 -5.53608015888556e+00
  2.13906267318019e+00 -5.53662699592499e+00
  1.18957757871069e+01 -4.83908733971493e+00
  1.16852184444817e+01 -4.85057998777105e+00
  1.14714293247603e+01 -4.86490400624253e+00
  1.12555333022618e+01 -4.87857528810307e+00
  1.10377098888238e+01 -4.89108019960357e+00
  1.08178372683139e+01 -4.90282844975933e+00
  1.05957378416113e+01 -4.91441043557429e+00
  1.03712619357371e+01 -4.92636013847152e+00
  1.01443095572204e+01 -4.93909809043631e+00
  9.91482971998855e+00 -4.95293365176399e+00
  9.68281255375915e+00 -4.96808358507944e+00
  9.44827995161664e+00 -4.98469224437211e+00
  9.21127690096420e+00 -5.00284878744368e+00
  8.97186422938406e+00 -5.02260034499365e+00
  8.73011290017479e+00 -5.04396130710755e+00
  8.48609971862075e+00 -5.06691931942410e+00
  8.23990419559943e+00 -5.09143871110398e+00
  7.99160629734800e+00 -5.11746206270623e+00
  7.74128485022322e+00 -5.14491052946937e+00
  7.48901643425242e+00 -5.17368340868968e+00
  7.23487466469864e+00 -5.20365731344557e+00
  6.97892981233017e+00 -5.23468521028547e+00
  6.72124874601695e+00 -5.26659550419645e+00
  6.46189519671689e+00 -5.29919130816642e+00
  6.20093034407609e+00 -5.33225000938834e+00
  5.93841371937681e+00 -5.36552323039516e+00
  5.67440440494362e+00 -5.39873727277232e+00
  5.40896249262471e+00 -5.43159411523244e+00
  5.14215074330851e+00 -5.46377300998368e+00
  4.87403636495188e+00 -5.49493267609821e+00
  4.60469279490771e+00 -5.52471402442738e+00
  4.33420132350554e+00 -5.55274327360662e+00
  4.06265230305475e+00 -5.57863526560178e+00
  3.79014547739623e+00 -5.60199686815371e+00
  3.51678844595641e+00 -5.62243085694574e+00
  3.24269090971435e+00 -5.63954241593909e+00
  2.96794867577210e+00 -5.65295561768311e+00
  2.69260138654814e+00 -5.66236217631907e+00
  2.41652008611465e+00 -5.66766695979296e+00
  2.13909948954611e+00 -5.66941351593362e+00
  1.18956754862429e+01 -4.90633388036092e+00
  1.16848784236785e+01 -4.91787867718962e+00
  1.14708157937162e+01 -4.93239780246757e+00
  1.12546566424792e+01 -4.94640145081744e+00
  1.10365914134121e+01 -4.95936078530735e+00
  1.08164976090778e+01 -4.97167763576553e+00
  1.05941948703356e+01 -4.98394060339948e+00
  1.03695315148045e+01 -4.99668539900566e+00
  1.01424067285348e+01 -5.01033588189579e+00
  9.91276968901980e+00 -5.02520509424602e+00
  9.68061137696081e+00 -5.04151310555539e+00
  9.44595496870842e+00 -5.05940680404249e+00
  9.20884696574930e+00 -5.07897689976927e+00
  8.96934977918571e+00 -5.10027097722266e+00
  8.72753589063223e+00 -5.12330270237626e+00
  8.48348344226899e+00 -5.14805774778633e+00
  8.23727299852110e+00 -5.17449714544312e+00
  7.98898520690337e+00 -5.20255877232796e+00
  7.73869912715825e+00 -5.23215758578344e+00
  7.48649106397484e+00 -5.26318510142937e+00
  7.23243380462016e+00 -5.29550848096749e+00
  6.97659621477043e+00 -5.32896949342645e+00
  6.71904317871789e+00 -5.36338354028691e+00
  6.45983588547914e+00 -5.39853889145907e+00
  6.19903246411947e+00 -5.43419625782766e+00
  5.93668896353227e+00 -5.47008881863483e+00
  5.67286065747657e+00 -5.50592282099741e+00
  5.40760363726994e+00 -5.54137886691009e+00
  5.14097663251694e+00 -5.57611399455611e+00
  4.87304297410600e+00 -5.60976464083215e+00
  4.60387257940643e+00 -5.64195053734440e+00
  4.33354378672498e+00 -5.67227954272690e+00
  4.06214476537724e+00 -5.70035335955275e+00
  3.78977400136808e+00 -5.72577406414176e+00
  3.51653879601772e+00 -5.74815152044395e+00
  3.24254924447559e+00 -5.76711244636521e+00
  2.96790122312555e+00 -5.78231431242661e+00
  2.69263119613337e+00 -5.79347477425871e+00
  2.41659584889514e+00 -5.80044984937443e+00
  2.13914266658690e+00 -5.80345986639460e+00
  1.18955835708018e+01 -4.97416197780422e+00
  1.16845738291094e+01 -4.98567586758368e+00
  1.14702747686088e+01 -5.00028085266761e+00
  1.12538854817133e+01 -5.01451846009204e+00
  1.10356025918052e+01 -5.02785646098518e+00
  1.08153027866272e+01 -5.04068906422113e+00
  1.05928045586161e+01 -5.05359930605864e+00
  1.03679561847892e+01 -5.06712015228091e+00
  1.01406577896271e+01 -5.08167486553179e+00
  9.91086009253024e+00 -5.09757713813835e+00
  9.67855592380480e+00 -5.11504817861734e+00
  9.44377042617258e+00 -5.13423595023304e+00
  9.20655206102938e+00 -5.15523178717338e+00
  8.96696510278981e+00 -5.17808317218190e+00
  8.72508372179147e+00 -5.20280273830491e+00
  8.48098749899081e+00 -5.22937403029605e+00
  8.23475811266872e+00 -5.25775471833433e+00
  7.98647692627905e+00 -5.28787795934254e+00
  7.73622324998545e+00 -5.31965251837518e+00
  7.48407311506103e+00 -5.35296214149671e+00
  7.23009846661086e+00 -5.38766454869297e+00
  6.97436673184933e+00 -5.42359031348777e+00
  6.71694075368605e+00 -5.46054182503127e+00
  6.45787909435446e+00 -5.49829248829455e+00
  6.19723671533297e+00 -5.53658630142647e+00
  5.93506603109979e+00 -5.57513794864486e+00
  5.67141831909770e+00 -5.61363355642228e+00
  5.40634544917155e+00 -5.65173227332582e+00
  5.13990187228414e+00 -5.68906884507721e+00
  4.87214678051822e+00 -5.72525736183020e+00
  4.60314631312347e+00 -5.75989634847693e+00
  4.33297562590010e+00 -5.79257534211579e+00
  4.06172053146060e+00 -5.82288303704117e+00
  3.78947817228394e+00 -5.85041694923105e+00
  3.51635558131852e+00 -5.87479431769270e+00
  3.24246340683307e+00 -5.89566358489636e+00
  2.96789787218125e+00 -5.91271535310611e+00
  2.69269262894390e+00 -5.92569171312143e+00
  2.41669046991588e+00 -5.93439530913110e+00
  2.13919246799423e+00 -5.93871100203450e+00
  1.18955002744427e+01 -5.04254015998457e+00
  1.16843054065791e+01 -5.05394345221395e+00
  1.14698074197252e+01 -5.06852903903509e+00
  1.12532213193692e+01 -5.08290526412443e+00
  1.10347450626121e+01 -5.09654820516074e+00
  1.08142544082478e+01 -5.10984497668300e+00
  1.05915683780158e+01 -5.12336957649338e+00
  1.03665372336775e+01 -5.13764798567123e+00
  1.01390638319494e+01 -5.15309911009450e+00
  9.90910183152510e+00 -5.17003436703453e+00
  9.67664692198375e+00 -5.18867400309167e+00
  9.44172690375526e+00 -5.20916563979665e+00
  9.20439265189931e+00 -5.23160033592748e+00
  8.96471059250999e+00 -5.25602493855666e+00
  8.72275676439388e+00 -5.28245075745887e+00
  8.47861229903077e+00 -5.31085907208951e+00
  8.23236005883218e+00 -5.34120414281515e+00
  7.98408216744861e+00 -5.37341440610671e+00
  7.73385821097099e+00 -5.40739245547745e+00
  7.48176395574150e+00 -5.44301429327966e+00
  7.22787049420159e+00 -5.48012821914548e+00
  6.97224378142874e+00 -5.51855362202070e+00
  6.71494455676029e+00 -5.55807987488175e+00