TITLE = "CFFC: 1D Euler Solution, Time Step/Iteration Level = 244, Time = 1.8 (ms)"
VARIABLES = "x" \ 
"dx" \ 
"rho" \ 
"u" \ 
"p" \ 
"T" \ 
"ValISrho" \ 
"ISrho" \ 
"ValISu" \ 
"ISu" \ 
"ValISp" \ 
"ISp" \ 
ZONE 
  -9.966667e-01 6.666667e-03 1.225000e+00 -7.791670e-14 1.013250e+05 2.881392e+02
3.33333e+07 0 3.33333e+07 0 3.33333e+07 0 
  -9.900000e-01 6.666667e-03 1.225000e+00 -7.791670e-14 1.013250e+05 2.881392e+02
3.33333e+07 0 3.33333e+07 0 3.33333e+07 0 
  -9.833333e-01 6.666667e-03 1.225000e+00 -7.791670e-14 1.013250e+05 2.881392e+02
3.33333e+07 0 3.33333e+07 0 3.33333e+07 0 
  -9.766667e-01 6.666667e-03 1.225000e+00 -7.791670e-14 1.013250e+05 2.881392e+02
3.33333e+07 0 3.33333e+07 0 3.33333e+07 0 
  -9.700000e-01 6.666667e-03 1.225000e+00 -7.791670e-14 1.013250e+05 2.881392e+02
3.33333e+07 0 3.33333e+07 0 3.33333e+07 0 
  -9.633333e-01 6.666667e-03 1.225000e+00 -7.791670e-14 1.013250e+05 2.881392e+02
3.33333e+07 0 3.33333e+07 0 3.33333e+07 0 
  -9.566667e-01 6.666667e-03 1.225000e+00 -7.791670e-14 1.013250e+05 2.881392e+02
3.33333e+07 0 3.33333e+07 0 3.33333e+07 0 
  -9.500000e-01 6.666667e-03 1.225000e+00 -7.791670e-14 1.013250e+05 2.881392e+02
3.33333e+07 0 3.33333e+07 0 3.33333e+07 0 
  -9.433333e-01 6.666667e-03 1.225000e+00 -7.791670e-14 1.013250e+05 2.881392e+02
3.33333e+07 0 3.33333e+07 0 3.33333e+07 0 
  -9.366667e-01 6.666667e-03 1.225000e+00 -7.791670e-14 1.013250e+05 2.881392e+02
3.33333e+07 0 3.33333e+07 0 3.33333e+07 0 
  -9.300000e-01 6.666667e-03 1.225000e+00 -7.791670e-14 1.013250e+05 2.881392e+02
3.33333e+07 0 3.33333e+07 0 3.33333e+07 0 
  -9.233333e-01 6.666667e-03 1.225000e+00 -7.791670e-14 1.013250e+05 2.881392e+02
3.33333e+07 0 3.33333e+07 0 3.33333e+07 0 
  -9.166667e-01 6.666667e-03 1.225000e+00 -7.791670e-14 1.013250e+05 2.881392e+02
3.33333e+07 0 3.33333e+07 0 3.33333e+07 0 
  -9.100000e-01 6.666667e-03 1.225000e+00 -7.791670e-14 1.013250e+05 2.881392e+02
3.33333e+07 0 3.33333e+07 0 3.33333e+07 0 
  -9.033333e-01 6.666667e-03 1.225000e+00 -7.791670e-14 1.013250e+05 2.881392e+02
3.33333e+07 0 3.33333e+07 0 3.33333e+07 0 
  -8.966667e-01 6.666667e-03 1.225000e+00 -7.791670e-14 1.013250e+05 2.881392e+02
3.33333e+07 0 3.33333e+07 0 3.33333e+07 0 
  -8.900000e-01 6.666667e-03 1.225000e+00 -7.791670e-14 1.013250e+05 2.881392e+02
3.33333e+07 0 3.33333e+07 0 3.33333e+07 0 
  -8.833333e-01 6.666667e-03 1.225000e+00 -7.791670e-14 1.013250e+05 2.881392e+02
3.33333e+07 0 3.33333e+07 0 3.33333e+07 0 
  -8.766667e-01 6.666667e-03 1.225000e+00 -7.791670e-14 1.013250e+05 2.881392e+02
3.33333e+07 0 3.33333e+07 0 3.33333e+07 0 
  -8.700000e-01 6.666667e-03 1.225000e+00 -8.556364e-14 1.013250e+05 2.881392e+02
3.33333e+07 0 3.33333e+07 0 3.33333e+07 0 
  -8.633333e-01 6.666667e-03 1.225000e+00 -2.944640e-14 1.013250e+05 2.881392e+02
3.33333e+07 0 3.33333e+07 0 3.33333e+07 0 
  -8.566667e-01 6.666667e-03 1.225000e+00 6.473658e-14 1.013250e+05 2.881392e+02
3.33333e+07 0 3.33333e+07 0 3.33333e+07 0 
  -8.500000e-01 6.666667e-03 1.225000e+00 -2.423751e-13 1.013250e+05 2.881392e+02
3.33333e+07 0 3.33333e+07 0 3.33333e+07 0 
  -8.433333e-01 6.666667e-03 1.225000e+00 -8.329330e-13 1.013250e+05 2.881392e+02
3.33333e+07 0 3.33333e+07 0 3.33333e+07 0 
  -8.366667e-01 6.666667e-03 1.225000e+00 -2.512918e-14 1.013250e+05 2.881392e+02
3.33333e+07 0 3.33333e+07 0 3.33333e+07 0 
  -8.300000e-01 6.666667e-03 1.225000e+00 3.068375e-12 1.013250e+05 2.881392e+02
3.33333e+07 0 3.33333e+07 0 3.33333e+07 0 
  -8.233333e-01 6.666667e-03 1.225000e+00 2.278402e-12 1.013250e+05 2.881392e+02
3.33333e+07 0 3.33333e+07 0 3.33333e+07 0 
  -8.166667e-01 6.666667e-03 1.225000e+00 -1.074296e-11 1.013250e+05 2.881392e+02
3.33333e+07 0 3.33333e+07 0 3.33333e+07 0 
  -8.100000e-01 6.666667e-03 1.225000e+00 -1.814128e-11 1.013250e+05 2.881392e+02
3.33333e+07 0 3.33333e+07 0 3.33333e+07 0 
  -8.033333e-01 6.666667e-03 1.225000e+00 2.660223e-11 1.013250e+05 2.881392e+02
3.33333e+07 0 3.33333e+07 0 3.33333e+07 0 
  -7.966667e-01 6.666667e-03 1.225000e+00 9.246222e-11 1.013250e+05 2.881392e+02
3.33333e+07 0 3.33333e+07 0 3.33333e+07 0 
  -7.900000e-01 6.666667e-03 1.225000e+00 -2.049954e-11 1.013250e+05 2.881392e+02
3.33333e+07 0 3.33333e+07 0 3.33333e+07 0 
  -7.833333e-01 6.666667e-03 1.225000e+00 -3.627219e-10 1.013250e+05 2.881392e+02
3.33333e+07 0 3.33333e+07 0 3.33333e+07 0 
  -7.766667e-01 6.666667e-03 1.225000e+00 -2.510057e-10 1.013250e+05 2.881392e+02
3.33333e+07 0 3.33333e+07 0 3.33333e+07 0 
  -7.700000e-01 6.666667e-03 1.225000e+00 1.072465e-09 1.013250e+05 2.881392e+02
3.33333e+07 0 3.33333e+07 0 3.33333e+07 0 
  -7.633333e-01 6.666667e-03 1.225000e+00 1.868924e-09 1.013250e+05 2.881392e+02
3.33333e+07 0 3.33333e+07 0 3.33333e+07 0 
  -7.566667e-01 6.666667e-03 1.225000e+00 -1.952618e-09 1.013250e+05 2.881392e+02
3.33333e+07 0 3.33333e+07 0 3.33333e+07 0 
  -7.500000e-01 6.666667e-03 1.225000e+00 -8.135469e-09 1.013250e+05 2.881392e+02
3.33333e+07 0 3.33333e+07 0 3.33333e+07 0 
  -7.433333e-01 6.666667e-03 1.225000e+00 -1.378611e-09 1.013250e+05 2.881392e+02
3.33333e+07 0 3.33333e+07 0 3.33333e+07 0 
  -7.366667e-01 6.666667e-03 1.225000e+00 2.461619e-08 1.013250e+05 2.881392e+02
3.33333e+07 0 3.33333e+07 0 3.33333e+07 0 
  -7.300000e-01 6.666667e-03 1.225000e+00 2.750546e-08 1.013250e+05 2.881392e+02
3.33333e+07 0 3.33333e+07 0 3.33333e+07 0 
  -7.233333e-01 6.666667e-03 1.225000e+00 -5.119108e-08 1.013250e+05 2.881392e+02
3.33333e+07 0 3.33333e+07 0 3.33333e+07 0 
  -7.166667e-01 6.666667e-03 1.225000e+00 -1.356790e-07 1.013250e+05 2.881392e+02
3.33333e+07 0 78.5615 1 3.33333e+07 0 
  -7.100000e-01 6.666667e-03 1.225000e+00 3.530090e-09 1.013250e+05 2.881392e+02
3.33333e+07 0 23.1951 1 3.33333e+07 0 
  -7.033333e-01 6.666667e-03 1.225000e+00 4.310789e-07 1.013250e+05 2.881392e+02
3.33333e+07 0 11.4366 1 3.33333e+07 0 
  -6.966667e-01 6.666667e-03 1.225000e+00 6.534620e-07 1.013250e+05 2.881392e+02
3.33333e+07 0 75.0452 1 3.33333e+07 0 
  -6.900000e-01 6.666667e-03 1.225000e+00 -9.972135e-07 1.013250e+05 2.881392e+02
3.33333e+07 0 14.0001 1 3.33333e+07 0 
  -6.833333e-01 6.666667e-03 1.225000e+00 -4.507773e-06 1.013250e+05 2.881392e+02
3.33333e+07 0 27.6355 1 3.33333e+07 0 
  -6.766667e-01 6.666667e-03 1.225000e+00 -4.738114e-06 1.013250e+05 2.881392e+02
3.33333e+07 0 83.7172 1 3.33333e+07 0 
  -6.700000e-01 6.666667e-03 1.225000e+00 1.114661e-05 1.013250e+05 2.881392e+02
3.33333e+07 0 106.204 1 3.33333e+07 0 
  -6.633333e-01 6.666667e-03 1.225000e+00 3.991279e-05 1.013250e+05 2.881392e+02
3.33333e+07 0 101.603 1 3.33333e+07 0 
  -6.566667e-01 6.666667e-03 1.225000e+00 5.809169e-05 1.013250e+05 2.881392e+02
3.33333e+07 0 20.0967 1 3.33333e+07 0 
  -6.500000e-01 6.666667e-03 1.225000e+00 4.512575e-05 1.013250e+05 2.881392e+02
3.33333e+07 0 0.351954 1 3.33333e+07 0 
  -6.433333e-01 6.666667e-03 1.225000e+00 -1.202903e-04 1.013250e+05 2.881392e+02
3.33333e+07 0 0.0163174 1 0.0152303 1 
  -6.366667e-01 6.666667e-03 1.225001e+00 -4.020670e-04 1.013251e+05 2.881393e+02
2.30859 1 2.22534 1 2.31877 1 
  -6.300000e-01 6.666667e-03 1.225001e+00 -3.445702e-04 1.013251e+05 2.881393e+02
17.9158 1 17.7478 1 17.9177 1 
  -6.233333e-01 6.666667e-03 1.224541e+00 1.276329e-01 1.012718e+05 2.880960e+02
68.6713 1 73.6885 1 68.1646 1 
  -6.166667e-01 6.666667e-03 1.219953e+00 1.410892e+00 1.007412e+05 2.876642e+02
4129.4 0 1922.77 1 4079.7 0 
  -6.100000e-01 6.666667e-03 1.212251e+00 3.600561e+00 9.985203e+04 2.869367e+02
26192.2 0 1879.75 1 25205.7 0 
  -6.033333e-01 6.666667e-03 1.202904e+00 6.133921e+00 9.877585e+04 2.860498e+02
11146.8 0 67765.8 0 10934.5 0 
  -5.966667e-01 6.666667e-03 1.193106e+00 8.913021e+00 9.765127e+04 2.851155e+02
54922.5 0 982993 0 54423.2 0 
  -5.900000e-01 6.666667e-03 1.183158e+00 1.181986e+01 9.651333e+04 2.841623e+02
158636 0 92931.7 0 157867 0 
  -5.833333e-01 6.666667e-03 1.172970e+00 1.474183e+01 9.535193e+04 2.831811e+02
377011 0 178441 0 384888 0 
  -5.766667e-01 6.666667e-03 1.162635e+00 1.766177e+01 9.417779e+04 2.821804e+02
240620 0 281398 0 237087 0 
  -5.700000e-01 6.666667e-03 1.152388e+00 2.062779e+01 9.301775e+04 2.811829e+02
266593 0 302645 0 266772 0 
  -5.633333e-01 6.666667e-03 1.142269e+00 2.364032e+01 9.187623e+04 2.801927e+02
534761 0 533030 0 524911 0 
  -5.566667e-01 6.666667e-03 1.132129e+00 2.664914e+01 9.073647e+04 2.791951e+02
367498 0 343399 0 360979 0 
  -5.500000e-01 6.666667e-03 1.121938e+00 2.963957e+01 8.959500e+04 2.781869e+02
1.16911e+06 0 1.24371e+06 0 1.07932e+06 0 
  -5.433333e-01 6.666667e-03 1.111825e+00 3.264605e+01 8.846640e+04 2.771813e+02
440979 0 452646 0 449272 0 
  -5.366667e-01 6.666667e-03 1.101844e+00 3.568274e+01 8.735665e+04 2.761834e+02
2.80342e+06 0 2.8771e+06 0 2.68539e+06 0 
  -5.300000e-01 6.666667e-03 1.091907e+00 3.872064e+01 8.625559e+04 2.751842e+02
588754 0 597337 0 607009 0 
  -5.233333e-01 6.666667e-03 1.081956e+00 4.174101e+01 8.515707e+04 2.741783e+02
6.11665e+06 0 6.42431e+06 0 6.183e+06 0 
  -5.166667e-01 6.666667e-03 1.072060e+00 4.476308e+01 8.406860e+04 2.731724e+02
888521 0 895673 0 878122 0 
  -5.100000e-01 6.666667e-03 1.062280e+00 4.780520e+01 8.299689e+04 2.721728e+02
8.7608e+06 0 8.38784e+06 0 8.6233e+06 0 
  -5.033333e-01 6.666667e-03 1.052577e+00 5.085484e+01 8.193750e+04 2.711757e+02
1.39174e+06 0 1.38095e+06 0 1.36028e+06 0 
  -4.966667e-01 6.666667e-03 1.042897e+00 5.389479e+01 8.088459e+04 2.701755e+02
7.97279e+06 0 7.33649e+06 0 7.96707e+06 0 
  -4.900000e-01 6.666667e-03 1.033268e+00 5.693264e+01 7.984098e+04 2.691749e+02
2.00918e+06 0 2.03119e+06 0 1.96638e+06 0 
  -4.833333e-01 6.666667e-03 1.023740e+00 5.998407e+01 7.881205e+04 2.681791e+02
5.37426e+06 0 5.15115e+06 0 5.46586e+06 0 
  -4.766667e-01 6.666667e-03 1.014296e+00 6.304443e+01 7.779614e+04 2.671869e+02
3.13072e+06 0 3.25627e+06 0 3.09463e+06 0 
  -4.700000e-01 6.666667e-03 1.004889e+00 6.609738e+01 7.678783e+04 2.661928e+02
3.69384e+06 0 3.55189e+06 0 3.71458e+06 0 
  -4.633333e-01 6.666667e-03 9.955166e-01 6.914233e+01 7.578708e+04 2.651969e+02
6.73932e+06 0 7.21468e+06 0 6.65377e+06 0 
  -4.566667e-01 6.666667e-03 9.862263e-01 7.219397e+01 7.479875e+04 2.642041e+02
3.08073e+06 0 3.01913e+06 0 3.05826e+06 0 
  -4.500000e-01 6.666667e-03 9.770329e-01 7.525751e+01 7.382441e+04 2.632162e+02
2.24393e+07 0 2.36073e+07 0 2.19481e+07 0 
  -4.433333e-01 6.666667e-03 9.679006e-01 7.832099e+01 7.286019e+04 2.622294e+02
3.58699e+06 0 3.56481e+06 0 3.53189e+06 0 
  -4.366667e-01 6.666667e-03 9.588008e-01 8.137444e+01 7.190299e+04 2.612404e+02
2.03379e+07 0 1.86948e+07 0 2.05693e+07 0 
  -4.300000e-01 6.666667e-03 9.497520e-01 8.442380e+01 7.095475e+04 2.602514e+02
7.92569e+06 0 8.1586e+06 0 7.7057e+06 0 
  -4.233333e-01 6.666667e-03 9.407880e-01 8.748046e+01 7.001896e+04 2.592661e+02
1.29705e+07 0 1.26795e+07 0 1.30187e+07 0 
  -4.166667e-01 6.666667e-03 9.319123e-01 9.054576e+01 6.909589e+04 2.582849e+02
3.33333e+07 0 3.33333e+07 0 3.33333e+07 0 
  -4.100000e-01 6.666667e-03 9.231042e-01 9.361267e+01 6.818332e+04 2.573056e+02
2.63665e+07 0 2.63625e+07 0 2.60662e+07 0 
  -4.033333e-01 6.666667e-03 9.143534e-01 9.667757e+01 6.728012e+04 2.563271e+02
3.33333e+07 0 3.33333e+07 0 3.33333e+07 0 
  -3.966667e-01 6.666667e-03 9.056660e-01 9.974257e+01 6.638688e+04 2.553501e+02
3.33333e+07 0 3.33333e+07 0 3.33333e+07 0 
  -3.900000e-01 6.666667e-03 8.970437e-01 1.028083e+02 6.550372e+04 2.543748e+02
3.33333e+07 0 3.33333e+07 0 3.33333e+07 0 
  -3.833333e-01 6.666667e-03 8.884771e-01 1.058713e+02 6.462962e+04 2.534003e+02
2.79572e+07 0 2.70705e+07 0 2.80824e+07 0 
  -3.766667e-01 6.666667e-03 8.799635e-01 1.089306e+02 6.376427e+04 2.524263e+02
3.33333e+07 0 3.33333e+07 0 3.33333e+07 0 
  -3.700000e-01 6.666667e-03 8.715163e-01 1.119910e+02 6.290896e+04 2.514542e+02
2.16857e+07 0 2.19383e+07 0 2.14515e+07 0 
  -3.633333e-01 6.666667e-03 8.631475e-01 1.150571e+02 6.206487e+04 2.504855e+02
3.33333e+07 0 3.33333e+07 0 3.33333e+07 0 
  -3.566667e-01 6.666667e-03 8.548518e-01 1.181270e+02 6.123136e+04 2.495197e+02
3.33333e+07 0 3.33333e+07 0 3.33333e+07 0 
  -3.500000e-01 6.666667e-03 8.466136e-01 1.211951e+02 6.040682e+04 2.485550e+02
3.12637e+07 0 3.06692e+07 0 3.12726e+07 0 
  -3.433333e-01 6.666667e-03 8.384285e-01 1.242599e+02 5.959076e+04 2.475909e+02
3.33333e+07 0 3.33333e+07 0 3.33333e+07 0 
  -3.366667e-01 6.666667e-03 8.303063e-01 1.273249e+02 5.878414e+04 2.466287e+02
3.33333e+07 0 3.31962e+07 0 3.28115e+07 0 
  -3.300000e-01 6.666667e-03 8.222547e-01 1.303934e+02 5.798765e+04 2.456694e+02
3.33333e+07 0 3.33333e+07 0 3.33333e+07 0 
  -3.233333e-01 6.666667e-03 8.142676e-01 1.334632e+02 5.720062e+04 2.447121e+02
3.33333e+07 0 3.33333e+07 0 3.33333e+07 0 
  -3.166667e-01 6.666667e-03 8.063342e-01 1.365300e+02 5.642191e+04 2.437556e+02
3.33333e+07 0 3.33333e+07 0 3.33333e+07 0 
  -3.100000e-01 6.666667e-03 7.984535e-01 1.395935e+02 5.565139e+04 2.427997e+02
3.33333e+07 0 3.33333e+07 0 3.33333e+07 0 
  -3.033333e-01 6.666667e-03 7.906353e-01 1.426577e+02 5.488998e+04 2.418459e+02
3.33333e+07 0 3.33333e+07 0 3.33333e+07 0 
  -2.966667e-01 6.666667e-03 7.828860e-01 1.457254e+02 5.413826e+04 2.408949e+02
3.33333e+07 0 3.33333e+07 0 3.33333e+07 0 
  -2.900000e-01 6.666667e-03 7.752012e-01 1.487948e+02 5.339573e+04 2.399462e+02
3.33333e+07 0 3.33333e+07 0 3.33333e+07 0 
  -2.833333e-01 6.666667e-03 7.675719e-01 1.518626e+02 5.266146e+04 2.389988e+02
3.33333e+07 0 3.33333e+07 0 3.33333e+07 0 
  -2.766667e-01 6.666667e-03 7.599961e-01 1.549280e+02 5.193524e+04 2.380524e+02
3.33333e+07 0 3.33333e+07 0 3.33333e+07 0 
  -2.700000e-01 6.666667e-03 7.524811e-01 1.579940e+02 5.121769e+04 2.371080e+02
3.33333e+07 0 3.33333e+07 0 3.33333e+07 0 
  -2.633333e-01 6.666667e-03 7.450342e-01 1.610637e+02 5.050946e+04 2.361665e+02
3.33333e+07 0 3.33333e+07 0 3.33333e+07 0 
  -2.566667e-01 6.666667e-03 7.376551e-01 1.641372e+02 4.981046e+04 2.352280e+02
3.33333e+07 0 3.33333e+07 0 3.33333e+07 0 
  -2.500000e-01 6.666667e-03 7.303372e-01 1.672120e+02 4.912002e+04 2.342917e+02
3.33333e+07 0 3.33333e+07 0 3.33333e+07 0 
  -2.433333e-01 6.666667e-03 7.230731e-01 1.702849e+02 4.843739e+04 2.333567e+02
3.33333e+07 0 3.33333e+07 0 3.33333e+07 0 
  -2.366667e-01 6.666667e-03 7.158586e-01 1.733544e+02 4.776215e+04 2.324227e+02
3.33333e+07 0 3.33333e+07 0 3.33333e+07 0 
  -2.300000e-01 6.666667e-03 7.086934e-01 1.764202e+02 4.709423e+04 2.314894e+02
3.33333e+07 0 3.33333e+07 0 3.33333e+07 0 
  -2.233333e-01 6.666667e-03 7.015806e-01 1.794834e+02 4.643384e+04 2.305573e+02
3.33333e+07 0 3.33333e+07 0 3.33333e+07 0 
  -2.166667e-01 6.666667e-03 6.945257e-01 1.825464e+02 4.578144e+04 2.296270e+02
3.33333e+07 0 3.33333e+07 0 3.33333e+07 0 
  -2.100000e-01 6.666667e-03 6.875343e-01 1.856119e+02 4.513753e+04 2.286995e+02
3.33333e+07 0 3.33333e+07 0 3.33333e+07 0 
  -2.033333e-01 6.666667e-03 6.806079e-01 1.886807e+02 4.450218e+04 2.277750e+02
3.33333e+07 0 3.33333e+07 0 3.33333e+07 0 
  -1.966667e-01 6.666667e-03 6.737420e-01 1.917511e+02 4.387493e+04 2.268531e+02
3.33333e+07 0 3.33333e+07 0 3.33333e+07 0 
  -1.900000e-01 6.666667e-03 6.669296e-01 1.948199e+02 4.325510e+04 2.259327e+02
3.33333e+07 0 3.33333e+07 0 3.33333e+07 0 
  -1.833333e-01 6.666667e-03 6.601676e-01 1.978860e+02 4.264235e+04 2.250136e+02
3.33333e+07 0 3.33333e+07 0 3.33333e+07 0 
  -1.766667e-01 6.666667e-03 6.534591e-01 2.009507e+02 4.203692e+04 2.240961e+02
3.33333e+07 0 3.33333e+07 0 3.33333e+07 0 
  -1.700000e-01 6.666667e-03 6.468092e-01 2.040165e+02 4.143924e+04 2.231811e+02
3.33333e+07 0 3.33333e+07 0 3.33333e+07 0 
  -1.633333e-01 6.666667e-03 6.402195e-01 2.070845e+02 4.084939e+04 2.222688e+02
3.33333e+07 0 3.33333e+07 0 3.33333e+07 0 
  -1.566667e-01 6.666667e-03 6.336863e-01 2.101530e+02 4.026697e+04 2.213587e+02
3.33333e+07 0 3.33333e+07 0 3.33333e+07 0 
  -1.500000e-01 6.666667e-03 6.272045e-01 2.132200e+02 3.969153e+04 2.204502e+02
3.33333e+07 0 3.33333e+07 0 3.33333e+07 0 
  -1.433333e-01 6.666667e-03 6.207732e-01 2.162848e+02 3.912290e+04 2.195431e+02
3.33333e+07 0 3.33333e+07 0 3.33333e+07 0 
  -1.366667e-01 6.666667e-03 6.143949e-01 2.193488e+02 3.856127e+04 2.186380e+02
3.33333e+07 0 3.33333e+07 0 3.33333e+07 0 
  -1.300000e-01 6.666667e-03 6.080715e-01 2.224126e+02 3.800678e+04 2.177350e+02
3.33333e+07 0 3.33333e+07 0 3.33333e+07 0 
  -1.233333e-01 6.666667e-03 6.018018e-01 2.254755e+02 3.745926e+04 2.168341e+02
3.33333e+07 0 3.33333e+07 0 3.33333e+07 0 
  -1.166667e-01 6.666667e-03 5.955825e-01 2.285353e+02 3.691840e+04 2.159349e+02
3.33333e+07 0 3.33333e+07 0 3.33333e+07 0 
  -1.100000e-01 6.666667e-03 5.894131e-01 2.315912e+02 3.638411e+04 2.150373e+02
3.33333e+07 0 3.33333e+07 0 3.33333e+07 0 
  -1.033333e-01 6.666667e-03 5.832980e-01 2.346441e+02 3.585673e+04 2.141421e+02
3.33333e+07 0 3.33333e+07 0 3.33333e+07 0 
  -9.666667e-02 6.666667e-03 5.772442e-01 2.376962e+02 3.533681e+04 2.132503e+02
3.33333e+07 0 3.33333e+07 0 3.33333e+07 0 
  -9.000000e-02 6.666667e-03 5.712573e-01 2.407480e+02 3.482478e+04 2.123628e+02
3.33333e+07 0 3.33333e+07 0 3.33333e+07 0 
  -8.333333e-02 6.666667e-03 5.653401e-01 2.437964e+02 3.432080e+04 2.114801e+02
3.33333e+07 0 3.33333e+07 0 3.33333e+07 0 
  -7.666667e-02 6.666667e-03 5.594949e-01 2.468350e+02 3.382503e+04 2.106027e+02
3.04487e+07 0 3.33333e+07 0 3.10037e+07 0 
  -7.000000e-02 6.666667e-03 5.537293e-01 2.498544e+02 3.333803e+04 2.097318e+02
9.36928e+06 0 1.49969e+07 0 1.03107e+07 0 
  -6.333333e-02 6.666667e-03 5.480611e-01 2.528417e+02 3.286124e+04 2.088704e+02
3.22824e+06 0 2.88072e+06 0 3.22315e+06 0 
  -5.666667e-02 6.666667e-03 5.425274e-01 2.557766e+02 3.239765e+04 2.080241e+02
610355 0 791584 0 702869 0 
  -5.000000e-02 6.666667e-03 5.371950e-01 2.586216e+02 3.195277e+04 2.072041e+02
310460 0 164876 0 290758 0 
  -4.333333e-02 6.666667e-03 5.322022e-01 2.613075e+02 3.153768e+04 2.064310e+02
47090 0 161600 0 66632.6 0 
  -3.666667e-02 6.666667e-03 5.277810e-01 2.636946e+02 3.117160e+04 2.057440e+02
53796.1 0 42835.4 0 75620.4 0 
  -3.000000e-02 6.666667e-03 5.243545e-01 2.655831e+02 3.088747e+04 2.052009e+02
1564.66 1 3162.94 0 6805.1 0 
  -2.333333e-02 6.666667e-03 5.222531e-01 2.667318e+02 3.070952e+04 2.048396e+02
631.527 1 705.923 1 3771.61 0 
  -1.666667e-02 6.666667e-03 5.210807e-01 2.671831e+02 3.063149e+04 2.047787e+02
59.6547 1 279.102 1 1150.88 1 
  -1.000000e-02 6.666667e-03 5.210539e-01 2.673557e+02 3.062049e+04 2.047158e+02
8.99076 1 322.47 1 30.3266 1 
  -3.333333e-03 6.666667e-03 5.211144e-01 2.673953e+02 3.062396e+04 2.047152e+02
26.1247 1 489.784 1 97.5058 1 
  3.333333e-03 6.666667e-03 5.213212e-01 2.673422e+02 3.063647e+04 2.047176e+02
2257.29 0 241.704 1 375.472 1 
  1.000000e-02 6.666667e-03 5.215478e-01 2.672369e+02 3.065234e+04 2.047346e+02
197.836 1 105.984 1 170.735 1 
  1.666667e-02 6.666667e-03 5.216649e-01 2.671556e+02 3.066188e+04 2.047524e+02
69.2272 1 1886.39 1 194.85 1 
  2.333333e-02 6.666667e-03 5.216579e-01 2.670995e+02 3.066406e+04 2.047697e+02
12.9283 1 1432.97 1 354.574 1 
  3.000000e-02 6.666667e-03 5.216460e-01 2.670593e+02 3.066400e+04 2.047740e+02
334.348 1 1060.77 1 302.903 1 
  3.666667e-02 6.666667e-03 5.216702e-01 2.670121e+02 3.066664e+04 2.047821e+02
114.7 1 480.598 1 102.229 1 
  4.333333e-02 6.666667e-03 5.217662e-01 2.669493e+02 3.067529e+04 2.048022e+02
416.164 1 1177.98 1 707.993 1 
  5.000000e-02 6.666667e-03 5.218956e-01 2.668869e+02 3.068644e+04 2.048259e+02
116.155 1 132.066 1 163.696 1 
  5.666667e-02 6.666667e-03 5.219846e-01 2.668508e+02 3.069447e+04 2.048444e+02
594.367 1 765.49 1 690.074 1 
  6.333333e-02 6.666667e-03 5.220475e-01 2.668256e+02 3.070031e+04 2.048588e+02
67.6752 1 75.5595 1 88.7101 1 
  7.000000e-02 6.666667e-03 5.221251e-01 2.667892e+02 3.070718e+04 2.048742e+02
166.01 1 425.017 1 539.304 1 
  7.666667e-02 6.666667e-03 5.221793e-01 2.667557e+02 3.071195e+04 2.048848e+02
2585.74 0 63.4346 1 167.656 1 
  8.333333e-02 6.666667e-03 5.222114e-01 2.667469e+02 3.071297e+04 2.048789e+02
123.241 1 62.0316 1 45.8903 1 
  9.000000e-02 6.666667e-03 5.222221e-01 2.667548e+02 3.071162e+04 2.048657e+02
44.2435 1 30.1633 1 37.427 1 
  9.666667e-02 6.666667e-03 5.222383e-01 2.667554e+02 3.071187e+04 2.048611e+02
3.62434 1 5.05317 1 14.4338 1 
  1.033333e-01 6.666667e-03 5.223152e-01 2.667324e+02 3.071591e+04 2.048578e+02
4.65156 1 9.00938 1 75.6014 1 
  1.100000e-01 6.666667e-03 5.223275e-01 2.667229e+02 3.071915e+04 2.048746e+02
77.5277 1 43.1528 1 13.2681 1 
  1.166667e-01 6.666667e-03 5.223072e-01 2.667336e+02 3.071831e+04 2.048769e+02
9.36769 1 20.8305 1 16.9867 1 
  1.233333e-01 6.666667e-03 5.222664e-01 2.667496e+02 3.071703e+04 2.048844e+02
9.85471 1 9.68255 1 39.4655 1 
  1.300000e-01 6.666667e-03 5.222712e-01 2.667447e+02 3.071798e+04 2.048889e+02
43.5765 1 187.438 1 5.49683 1 
  1.366667e-01 6.666667e-03 5.223065e-01 2.667294e+02 3.072132e+04 2.048973e+02
51.6549 1 25.9047 1 9.03239 1 
  1.433333e-01 6.666667e-03 5.223250e-01 2.667169e+02 3.072125e+04 2.048896e+02
16.6187 1 4.34591 1 350.476 1 
  1.500000e-01 6.666667e-03 5.222973e-01 2.667312e+02 3.071805e+04 2.048791e+02
88.2969 1 4.63483 1 30.7243 1 
  1.566667e-01 6.666667e-03 5.222617e-01 2.667394e+02 3.071328e+04 2.048613e+02
156.205 1 62.2233 1 9.78431 1 
  1.633333e-01 6.666667e-03 5.222414e-01 2.667276e+02 3.071262e+04 2.048648e+02
27.2259 1 12.7953 1 46.3762 1 
  1.700000e-01 6.666667e-03 5.222398e-01 2.667011e+02 3.071287e+04 2.048671e+02
80.7683 1 10.8581 1 63.8467 1 
  1.766667e-01 6.666667e-03 5.222253e-01 2.666986e+02 3.071224e+04 2.048686e+02
3.24343 1 272.152 1 2.64924 1 
  1.833333e-01 6.666667e-03 5.221642e-01 2.667149e+02 3.070868e+04 2.048689e+02
4.1744 1 23.4926 1 4.69514 1 
  1.900000e-01 6.666667e-03 5.221634e-01 2.667382e+02 3.070886e+04 2.048703e+02
44.9031 1 4.92848 1 111.464 1 
  1.966667e-01 6.666667e-03 5.221918e-01 2.667368e+02 3.071144e+04 2.048764e+02
11.0275 1 7.51694 1 11.0873 1 
  2.033333e-01 6.666667e-03 5.222549e-01 2.667401e+02 3.071647e+04 2.048852e+02
8.48442 1 128.672 1 7.05793 1 
  2.100000e-01 6.666667e-03 5.222672e-01 2.667522e+02 3.071692e+04 2.048834e+02
120.621 1 5.81112 1 50.2229 1 
  2.166667e-01 6.666667e-03 5.222569e-01 2.667817e+02 3.071588e+04 2.048805e+02
3.33333e+07 0 6.98346 1 3.33333e+07 0 
  2.233333e-01 6.666667e-03 5.222521e-01 2.667819e+02 3.071511e+04 2.048772e+02
1.83563 1 217.527 1 1.17291 1 
  2.300000e-01 6.666667e-03 5.222797e-01 2.667650e+02 3.071717e+04 2.048801e+02
2.30687 1 47.3357 1 2.62033 1 
  2.366667e-01 6.666667e-03 5.222796e-01 2.667438e+02 3.071662e+04 2.048765e+02
78.9398 1 8.43168 1 226.711 1 
  2.433333e-01 6.666667e-03 5.222622e-01 2.667444e+02 3.071432e+04 2.048680e+02
7.38169 1 17.8944 1 17.3748 1 
  2.500000e-01 6.666667e-03 5.222265e-01 2.667473e+02 3.071090e+04 2.048592e+02
10.1279 1 89.6354 1 10.1718 1 
  2.566667e-01 6.666667e-03 5.222288e-01 2.667432e+02 3.071102e+04 2.048591e+02
15.5204 1 2.75739 1 101.007 1 
  2.633333e-01 6.666667e-03 5.222585e-01 2.667250e+02 3.071282e+04 2.048595e+02
6.82452 1 6.58354 1 42.315 1 
  2.700000e-01 6.666667e-03 5.222640e-01 2.667273e+02 3.071381e+04 2.048639e+02
19.3123 1 41.7363 1 4.11872 1 
  2.766667e-01 6.666667e-03 5.222455e-01 2.667452e+02 3.071240e+04 2.048618e+02
3.33333e+07 0 55.2558 1 3.70367 1 
  2.833333e-01 6.666667e-03 5.222364e-01 2.667565e+02 3.071226e+04 2.048643e+02
11.2991 1 17.7024 1 23.2874 1 
  2.900000e-01 6.666667e-03 5.222524e-01 2.667485e+02 3.071402e+04 2.048698e+02
3.33333e+07 0 3.33333e+07 0 99.5221 1 
  2.966667e-01 6.666667e-03 5.222672e-01 2.667366e+02 3.071563e+04 2.048748e+02
56.9558 1 17.6682 1 39.9048 1 
  3.033333e-01 6.666667e-03 5.222599e-01 2.667389e+02 3.071518e+04 2.048746e+02
13.2677 1 5.11643 1 18.1311 1 
  3.100000e-01 6.666667e-03 5.222307e-01 2.667526e+02 3.071304e+04 2.048718e+02
23.3412 1 9.85002 1 29.1152 1 
  3.166667e-01 6.666667e-03 5.222206e-01 2.667496e+02 3.071226e+04 2.048706e+02
9.91041 1 15.8003 1 6.94609 1 
  3.233333e-01 6.666667e-03 5.222423e-01 2.667305e+02 3.071411e+04 2.048744e+02
3.33333e+07 0 19.7018 1 5.95798 1 
  3.300000e-01 6.666667e-03 5.222540e-01 2.667224e+02 3.071488e+04 2.048750e+02
8.01829 1 24.2359 1 11.1314 1 
  3.366667e-01 6.666667e-03 5.222362e-01 2.667331e+02 3.071346e+04 2.048725e+02
3.33333e+07 0 42.3182 1 3.33333e+07 0 
  3.433333e-01 6.666667e-03 5.222234e-01 2.667460e+02 3.071239e+04 2.048704e+02
23.9242 1 15.9706 1 45.903 1 
  3.500000e-01 6.666667e-03 5.222370e-01 2.667423e+02 3.071343e+04 2.048719e+02
520.637 1 6.93735 1 26.5395 1 
  3.566667e-01 6.666667e-03 5.222640e-01 2.667285e+02 3.071609e+04 2.048791e+02
47.3308 1 10.1765 1 35.7185 1 
  3.633333e-01 6.666667e-03 5.222911e-01 2.667322e+02 3.071720e+04 2.048759e+02
4.59688 1 14.7285 1 12.7942 1 
  3.700000e-01 6.666667e-03 5.222873e-01 2.667509e+02 3.071579e+04 2.048680e+02
66.623 1 15.828 1 3.33333e+07 0 
  3.766667e-01 6.666667e-03 5.223057e-01 2.667570e+02 3.071494e+04 2.048551e+02
58.6611 1 30.431 1 5.0433 1 
  3.833333e-01 6.666667e-03 5.223745e-01 2.667447e+02 3.071660e+04 2.048392e+02
212.823 1 64.1928 1 6.26503 1 
  3.900000e-01 6.666667e-03 5.224563e-01 2.667303e+02 3.071752e+04 2.048132e+02
732.763 1 15.5462 1 83.2932 1 
  3.966667e-01 6.666667e-03 5.225540e-01 2.667326e+02 3.071652e+04 2.047683e+02
2827.15 0 3.33333e+07 0 24.7229 1 
  4.033333e-01 6.666667e-03 5.226417e-01 2.667438e+02 3.071404e+04 2.047173e+02
63.4581 1 12.1795 1 40.5223 1 
  4.100000e-01 6.666667e-03 5.226897e-01 2.667403e+02 3.071310e+04 2.046923e+02
12.9363 1 8.09037 1 12.2101 1 
  4.166667e-01 6.666667e-03 5.227519e-01 2.667223e+02 3.071482e+04 2.046794e+02
10.4699 1 8.76432 1 16.612 1 
  4.233333e-01 6.666667e-03 5.227504e-01 2.667198e+02 3.071601e+04 2.046879e+02
49.9252 1 44.7883 1 5.59398 1 
  4.300000e-01 6.666667e-03 5.227179e-01 2.667329e+02 3.071430e+04 2.046893e+02
37.2935 1 58.3678 1 8.19912 1 
  4.366667e-01 6.666667e-03 5.226520e-01 2.667454e+02 3.071313e+04 2.047073e+02
35.1377 1 11.6596 1 31.1064 1 
  4.433333e-01 6.666667e-03 5.224460e-01 2.667392e+02 3.071428e+04 2.047956e+02
61.9465 1 3.33333e+07 0 12.6105 1 
  4.500000e-01 6.666667e-03 5.217180e-01 2.667271e+02 3.071670e+04 2.050976e+02
87.3002 1 34.949 1 14.2458 1 
  4.566667e-01 6.666667e-03 5.190060e-01 2.667266e+02 3.071657e+04 2.061684e+02
4508.12 0 3.72318 1 31.4938 1 
  4.633333e-01 6.666667e-03 5.085705e-01 2.667421e+02 3.071407e+04 2.103817e+02
2386.83 0 4.82441 1 58.5075 1 
  4.700000e-01 6.666667e-03 4.847734e-01 2.667412e+02 3.071234e+04 2.206967e+02
3056.81 0 76.3282 1 6.05678 1 
  4.766667e-01 6.666667e-03 4.463760e-01 2.667262e+02 3.071408e+04 2.396947e+02
4189.41 0 267.01 1 2.85829 1 
  4.833333e-01 6.666667e-03 3.983405e-01 2.667119e+02 3.071517e+04 2.686088e+02
5762.7 0 101.098 1 208.836 1 
  4.900000e-01 6.666667e-03 3.521560e-01 2.667122e+02 3.071494e+04 3.038341e+02
1727.41 1 25.1418 1 11.9729 1 
  4.966667e-01 6.666667e-03 3.231942e-01 2.667298e+02 3.071284e+04 3.310383e+02
60.7655 1 76.0718 1 20.4809 1 
  5.033333e-01 6.666667e-03 3.199656e-01 2.667433e+02 3.071175e+04 3.343667e+02
19.3248 1 56.8354 1 329.141 1 
  5.100000e-01 6.666667e-03 3.200389e-01 2.667393e+02 3.071246e+04 3.342979e+02
3.99958 1 8.97111 1 75.455 1 
  5.166667e-01 6.666667e-03 3.204231e-01 2.667215e+02 3.071500e+04 3.339247e+02
23.0626 1 4.19713 1 408.001 1 
  5.233333e-01 6.666667e-03 3.213534e-01 2.667205e+02 3.071734e+04 3.329834e+02
1323.32 1 15.7586 1 76.866 1 
  5.300000e-01 6.666667e-03 3.227741e-01 2.667270e+02 3.071732e+04 3.315176e+02
2244.96 0 7.65375 1 18.4938 1 
  5.366667e-01 6.666667e-03 3.243494e-01 2.667572e+02 3.071490e+04 3.298814e+02
2130.88 0 15.263 1 18.8292 1 
  5.433333e-01 6.666667e-03 3.254937e-01 2.667705e+02 3.071359e+04 3.287077e+02
62.0517 1 434.449 1 250.97 1 
  5.500000e-01 6.666667e-03 3.257397e-01 2.667626e+02 3.071443e+04 3.284684e+02
49.9353 1 58.9042 1 7.27338 1 
  5.566667e-01 6.666667e-03 3.257614e-01 2.667359e+02 3.071771e+04 3.284816e+02
18.3684 1 255.172 1 6.17605 1 
  5.633333e-01 6.666667e-03 3.257339e-01 2.667156e+02 3.071819e+04 3.285144e+02
130.246 1 60.7799 1 42.6845 1 
  5.700000e-01 6.666667e-03 3.256451e-01 2.667222e+02 3.071685e+04 3.285898e+02
95.0319 1 13.9544 1 11.3237 1 
  5.766667e-01 6.666667e-03 3.254931e-01 2.667508e+02 3.071232e+04 3.286947e+02
93.2997 1 9.03366 1 19.5587 1 
  5.833333e-01 6.666667e-03 3.253771e-01 2.667582e+02 3.071033e+04 3.287906e+02
94.012 1 104.611 1 406.262 1 
  5.900000e-01 6.666667e-03 3.252850e-01 2.667465e+02 3.071159e+04 3.288972e+02
13.2067 1 9.67356 1 18.1967 1 
  5.966667e-01 6.666667e-03 3.252873e-01 2.667084e+02 3.071589e+04 3.289409e+02
4.69974 1 13.3418 1 22.6041 1 
  6.033333e-01 6.666667e-03 3.252734e-01 2.666970e+02 3.071767e+04 3.289740e+02
39.0818 1 314.105 1 234.856 1 
  6.100000e-01 6.666667e-03 3.252525e-01 2.667143e+02 3.071589e+04 3.289761e+02
7.30244 1 79.0557 1 11.2323 1 
  6.166667e-01 6.666667e-03 3.252167e-01 2.667505e+02 3.071126e+04 3.289627e+02
7.7266 1 172.981 1 8.9685 1 
  6.233333e-01 6.666667e-03 3.252238e-01 2.667712e+02 3.071071e+04 3.289497e+02
74.0309 1 56.0572 1 183.544 1 
  6.300000e-01 6.666667e-03 3.252526e-01 2.667549e+02 3.071316e+04 3.289467e+02
66.2018 1 12.8405 1 36.6102 1 
  6.366667e-01 6.666667e-03 3.253050e-01 2.667158e+02 3.071825e+04 3.289483e+02
293.961 1 8.31862 1 94.6823 1 
  6.433333e-01 6.666667e-03 3.253409e-01 2.667147e+02 3.072079e+04 3.289391e+02
17.7668 1 156.195 1 36.0719 1 
  6.500000e-01 6.666667e-03 3.253273e-01 2.667389e+02 3.071816e+04 3.289246e+02
31.3648 1 18.5387 1 97.7167 1 
  6.566667e-01 6.666667e-03 3.253056e-01 2.667829e+02 3.071361e+04 3.288980e+02
15.2407 1 19.5807 1 49.4121 1 
  6.633333e-01 6.666667e-03 3.253121e-01 2.667903e+02 3.071231e+04 3.288774e+02
423.14 1 79.6465 1 75.33 1 
  6.700000e-01 6.666667e-03 3.253401e-01 2.667616e+02 3.071554e+04 3.288837e+02
175.081 1 318.171 1 25.7444 1 
  6.766667e-01 6.666667e-03 3.253755e-01 2.667278e+02 3.072057e+04 3.289018e+02
216.954 1 284.057 1 14.2756 1 
  6.833333e-01 6.666667e-03 3.253882e-01 2.667136e+02 3.072042e+04 3.288873e+02
17.9579 1 28.1908 1 145.135 1 
  6.900000e-01 6.666667e-03 3.253590e-01 2.667436e+02 3.071650e+04 3.288749e+02