TITLE = "CFDkit+caboodle: 2D Structured Curvilinear Grid Block (Cell Locations)"
VARIABLES = "x" \ 
"y" 
ZONE T =  "Block Number = 0" \ 
I = 20 \ 
J = 20 \ 
F = POINT 
  -9.32094845808771e-01 -9.34341432528730e-01
  -8.29094918072613e-01 -9.24209451942783e-01
  -7.43229737626073e-01 -9.39158002883350e-01
  -6.39498540241819e-01 -9.68208076236140e-01
  -5.35601748340960e-01 -9.67717499610353e-01
  -4.27435624899794e-01 -9.49303520197307e-01
  -3.25851980888089e-01 -9.60655460175833e-01
  -2.41502838500264e-01 -9.57363331432354e-01
  -1.46275451885309e-01 -9.38646318636049e-01
  -5.85052705657592e-02 -9.45161101618347e-01
  3.53604139012121e-02 -9.40158082589526e-01
  1.34933941267680e-01 -9.41372455710237e-01
  2.38319545476660e-01 -9.61772704069773e-01
  3.36283380558352e-01 -9.52724926649714e-01
  4.21742274268711e-01 -9.59476823231869e-01
  5.49648532972246e-01 -9.55704881372104e-01
  6.57039867661349e-01 -9.44375356555996e-01
  7.37229936743232e-01 -9.54216358397579e-01
  8.43046641646080e-01 -9.32255013084918e-01
  9.50396379143549e-01 -9.30292589809831e-01
  -9.42893345593200e-01 -8.22070363926541e-01
  -8.37546279066484e-01 -8.13894858234350e-01
  -7.53196376870145e-01 -8.47280289582737e-01
  -6.55602278450614e-01 -8.77296040947793e-01
  -5.54914308286485e-01 -8.81124158451940e-01
  -4.44924842494442e-01 -8.76149092491405e-01
  -3.34514917035886e-01 -8.78538578929859e-01
  -2.38833420401278e-01 -8.67070487219409e-01
  -1.43937351337867e-01 -8.43111444296301e-01
  -5.25587970030442e-02 -8.54453277845140e-01
  5.48643975463238e-02 -8.55183477119197e-01
  1.39712748784475e-01 -8.29260215813003e-01
  2.40638123142741e-01 -8.44267209058248e-01
  3.46345149901787e-01 -8.40221926949231e-01
  4.32400322081338e-01 -8.56142099618949e-01
  5.63419422967899e-01 -8.45762921180735e-01
  6.72345579820955e-01 -8.24117548174414e-01
  7.44319529975704e-01 -8.62403782952902e-01
  8.31067014353190e-01 -8.39553626395580e-01
  9.37527903606961e-01 -8.24876191919798e-01
  -9.52546673441937e-01 -7.33680125459891e-01
  -8.45562170493336e-01 -7.49347326288565e-01
  -7.59496628204270e-01 -7.64303092639598e-01
  -6.74205939836878e-01 -7.31974749043317e-01
  -5.68234924274846e-01 -7.59105615261601e-01
  -4.58871464200627e-01 -7.90936325500476e-01
  -3.46734148463832e-01 -7.82129380846956e-01
  -2.36281036952575e-01 -7.98528899325476e-01
  -1.59574362430831e-01 -7.75002626912222e-01
  -8.62714284281598e-02 -7.60676432479078e-01
  3.00297454711658e-02 -7.67916318115367e-01
  1.22644844447157e-01 -7.40970455737423e-01
  2.18301915932183e-01 -7.42756609748213e-01
  3.28861308400483e-01 -7.41365709262759e-01
  4.56400761669327e-01 -7.48296187688546e-01
  5.67746215043152e-01 -7.41741931362282e-01
  6.45389601501516e-01 -7.33445010049054e-01
  7.57636919069616e-01 -7.75279389698231e-01
  8.42176090282819e-01 -7.66119197948756e-01
  9.30014130992463e-01 -7.41932945972598e-01
  -9.51591158904564e-01 -6.51874635788761e-01
  -8.26672692614990e-01 -6.83042497556948e-01
  -7.17241229012992e-01 -6.69574881121899e-01
  -6.27458794817286e-01 -6.11632031098946e-01
  -5.27464209581003e-01 -6.39377116450029e-01
  -4.42503543709199e-01 -6.59741527517840e-01
  -3.40647752167317e-01 -6.50391815898022e-01
  -2.41827098655397e-01 -6.63479918446849e-01
  -1.73670710329833e-01 -6.50562437396383e-01
  -1.16799872048940e-01 -6.33243421702028e-01
  8.51630722293111e-03 -6.31593448015666e-01
  1.27230595581518e-01 -6.47084218663450e-01
  2.20832160790325e-01 -6.67194251510017e-01
  3.30285867308261e-01 -6.76680802932786e-01
  4.36838671349100e-01 -6.88557336774658e-01
  5.40160371775704e-01 -6.84225967378473e-01
  6.30936489212140e-01 -6.63377796661419e-01
  7.56373950026738e-01 -6.51117347597400e-01
  8.49205389829985e-01 -6.42981993185622e-01
  9.36925175562363e-01 -6.45237979907757e-01
  -9.37080364137089e-01 -5.49477390736002e-01
  -8.10389443245299e-01 -5.65023753811051e-01
  -7.11798058681065e-01 -5.73072014506769e-01
  -6.26371966622842e-01 -5.38929246588992e-01
  -5.44050666386852e-01 -5.30518361677052e-01
  -4.73952457715670e-01 -5.27739618118679e-01
  -3.56724047728499e-01 -5.30703014354714e-01
  -2.31270063824433e-01 -5.36924731998092e-01
  -1.43129523939499e-01 -5.40007189789947e-01
  -6.24051460399083e-02 -5.31986529704600e-01
  5.56152123490425e-02 -5.11184781690020e-01
  1.68512132705587e-01 -5.46517933359612e-01
  2.62919612560362e-01 -5.59763858265606e-01
  3.53940771440015e-01 -5.65245023411069e-01
  4.45032789207992e-01 -5.88462944414910e-01
  5.37915033234235e-01 -5.80616052918198e-01
  6.42819528360154e-01 -5.77237148977472e-01
  7.57414384395684e-01 -5.59888905690443e-01
  8.47935606386104e-01 -5.44167225133746e-01
  9.48146843663281e-01 -5.51722133945503e-01
  -9.36751029020193e-01 -4.37649604502300e-01
  -8.25399538881662e-01 -4.28404402462328e-01
  -7.38632808541713e-01 -4.59566749784091e-01
  -6.54942035848689e-01 -4.61112991102203e-01
  -5.55450531956591e-01 -4.50541124260352e-01
  -4.71353897609307e-01 -4.44923512091454e-01
  -3.77097462505543e-01 -4.39903702508289e-01
  -2.45790681067592e-01 -4.53140174710031e-01
  -1.15816867163352e-01 -4.73693013945468e-01
  -2.13838243715308e-02 -4.68810378512362e-01
  5.22462274013813e-02 -4.46260848506053e-01
  1.61488137687660e-01 -4.65635274726088e-01
  2.60231429778807e-01 -4.67265746717757e-01
  3.50626319908960e-01 -4.58223766375877e-01
  4.68052873708363e-01 -4.69160367683182e-01
  5.57756185850431e-01 -4.61240383675962e-01
  6.58436859884661e-01 -4.64108771633382e-01
  7.57714054313623e-01 -4.75623434653610e-01
  8.42415348680139e-01 -4.83504114457612e-01
  9.48919320284066e-01 -4.74539725688572e-01
  -9.63419966835599e-01 -3.40325757015170e-01
  -8.68916952233920e-01 -3.39594575977981e-01
  -7.51769170093054e-01 -3.70544572548153e-01
  -6.50848948876323e-01 -3.78831432894463e-01
  -5.34227273995740e-01 -3.58275511786373e-01
  -4.38622104930375e-01 -3.63593047310558e-01
  -3.68605965675614e-01 -3.58613544311812e-01
  -2.71288887403613e-01 -3.57278471354033e-01
  -1.66382293627871e-01 -3.78438090929160e-01
  -7.06063440791492e-02 -3.53044887776986e-01
  5.30202955848313e-03 -3.51168024116025e-01
  1.20851010637608e-01 -3.72027115285431e-01
  2.50080891779500e-01 -3.84535556581321e-01
  3.74199762048246e-01 -3.73929997945117e-01
  4.85501117917374e-01 -3.63448524347368e-01
  5.62440461191198e-01 -3.61690999834621e-01
  6.50731325353484e-01 -3.41391121842574e-01
  7.46067219011461e-01 -3.72116497301525e-01
  8.40289704754857e-01 -4.00725329106892e-01
  9.44225183770687e-01 -3.75359006904132e-01
  -9.56658286986065e-01 -2.38448067065789e-01
  -8.66486604295154e-01 -2.20824498799575e-01
  -7.74397520468710e-01 -2.35485785644812e-01
  -6.57243563098242e-01 -2.62483666389539e-01
  -5.31843084376024e-01 -2.43123917613393e-01
  -4.64270765090634e-01 -2.33118790868314e-01
  -3.68535242617434e-01 -2.56181246636378e-01
  -2.50095620720355e-01 -2.85982944566914e-01
  -1.70819976530716e-01 -2.78911305414110e-01
  -8.51082950682548e-02 -2.33308448074677e-01
  1.93644270157054e-02 -2.35999683703247e-01
  1.41926064045717e-01 -2.67917795541112e-01
  2.53468212234246e-01 -2.78973843152557e-01
  3.53696670608514e-01 -2.62168310309038e-01
  4.63974142018517e-01 -2.65028537722545e-01
  5.76597312187443e-01 -2.53555575356992e-01
  6.64040347382825e-01 -2.39035550462592e-01
  7.47588974749554e-01 -2.75109865064716e-01
  8.30490474346790e-01 -2.71417289748795e-01
  9.32479318700548e-01 -2.48135332193341e-01
  -9.48642182555775e-01 -1.51624863943604e-01
  -8.49206447909844e-01 -1.15154001195470e-01
  -7.63126123708251e-01 -9.61882780416787e-02
  -6.60297364860264e-01 -1.41300459971063e-01
  -5.39339231552934e-01 -1.43083487984685e-01
  -4.71458096749021e-01 -1.07239796038666e-01
  -3.78976046838527e-01 -1.34361941566920e-01
  -2.45298742419101e-01 -1.62168639670772e-01
  -1.45776673453690e-01 -1.54294990421621e-01
  -7.60709226572098e-02 -1.68620900244439e-01
  1.78034061459573e-02 -1.58299821644102e-01
  1.56198043332130e-01 -1.47901557044168e-01
  2.70574815091244e-01 -1.57750716654128e-01
  3.66224626914372e-01 -1.58026663170834e-01
  4.64968274091368e-01 -1.64339044112730e-01
  5.76073807997462e-01 -1.57903093727713e-01
  6.72957971356342e-01 -1.40647023724523e-01
  7.61966983738961e-01 -1.36783990597584e-01
  8.34622782020005e-01 -1.49630474718376e-01
  9.26935103208255e-01 -1.55121541151658e-01
  -9.31703252537887e-01 -7.44215894814690e-02
  -8.23157760707868e-01 -6.14050193304678e-02
  -7.46557883278739e-01 -2.54223496120341e-02
  -6.59270718747720e-01 -3.42356393918848e-02
  -5.44757842405197e-01 -4.51619422895860e-02
  -4.45688996351533e-01 -3.34789084797207e-02
  -3.42615641005820e-01 -6.13296232757597e-02
  -2.26938100231154e-01 -6.19625470356203e-02
  -1.50177651771485e-01 -3.10461064005721e-02
  -1.04311344868062e-01 -5.95632390778498e-02
  -6.96427618813140e-03 -5.99606737197156e-02
  1.48268362986259e-01 -5.38445898204665e-02
  2.88028459612934e-01 -5.32094905306689e-02
  3.97391575692139e-01 -5.38083116796871e-02
  4.65262306433067e-01 -6.50287386252728e-02
  5.51088931516095e-01 -5.59192417320191e-02
  6.51215551308477e-01 -4.62271205495272e-02
  7.66091184738850e-01 -4.72677677756254e-02
  8.65127412432802e-01 -7.72128760512539e-02
  9.43384048573014e-01 -7.75352462125176e-02
  -9.47002648731686e-01 5.79144089703745e-02
  -8.37649016520472e-01 6.42621592232201e-02
  -7.50921223044650e-01 5.09898129678788e-02
  -6.63224156983604e-01 4.88318377521844e-02
  -5.71006827959655e-01 4.94067037587013e-02
  -4.58606730899397e-01 3.66085791878143e-02
  -3.38375440786902e-01 3.12720417460011e-02
  -2.21286238533588e-01 4.31914648701714e-02
  -1.34865835137168e-01 6.89588960312203e-02
  -9.98631004762289e-02 8.11886994951149e-02
  1.23411111317183e-02 6.31702166174223e-02
  1.69486813339467e-01 4.81778256437563e-02
  2.77911007307660e-01 6.75246064257275e-02
  3.72800316205800e-01 6.32382045798568e-02
  4.36338529325227e-01 4.21299470220234e-02
  5.23871126557367e-01 4.61197391402923e-02
  6.51366922015035e-01 1.96033187576459e-02
  7.44738150384964e-01 2.16757935698394e-03
  8.14371938359914e-01 1.54481821194566e-02
  9.19890369405186e-01 3.26320451670574e-02
  -9.72363826550819e-01 1.72789179370673e-01
  -8.64204792298333e-01 1.70477996082510e-01
  -7.52369835018497e-01 1.36754945632886e-01
  -6.67635984942249e-01 1.37456031995107e-01
  -5.66357239447043e-01 1.48254168537679e-01
  -4.45010670404059e-01 1.54089853695016e-01
  -3.43998070434084e-01 1.73212109690644e-01
  -2.34251312400824e-01 1.58216661148777e-01
  -1.38339507966407e-01 1.39586586347570e-01
  -6.21849990996492e-02 1.70468228962694e-01
  5.86153366302010e-02 1.62364575597839e-01
  1.66161054645603e-01 1.58073645071817e-01
  2.38138311522411e-01 1.66899292759297e-01
  3.33689355977987e-01 1.65068182983336e-01
  4.36774711376608e-01 1.89040401492466e-01
  5.54137906087048e-01 1.73152884136739e-01
  6.77842071299746e-01 1.26222784130351e-01
  7.51316038244488e-01 1.37249503497332e-01
  8.21926892291075e-01 1.68168583335229e-01
  9.27852247893178e-01 1.59039639321304e-01
  -9.59864943348978e-01 2.38725254702826e-01
  -8.47641793333286e-01 2.46352412794979e-01
  -7.45792132797718e-01 2.68154630551672e-01
  -6.68792725172880e-01 2.61043619608698e-01
  -5.54008834727221e-01 2.41611483255626e-01
  -4.42868817224593e-01 2.43155912855789e-01
  -3.52369562886135e-01 2.51299670992732e-01
  -2.45077559079412e-01 2.40900824480359e-01
  -1.56184773368490e-01 2.40068450312035e-01
  -6.28573069722307e-02 2.73020971723553e-01
  8.61914855298428e-02 2.64696442895867e-01
  1.88735070587529e-01 2.25531629563047e-01
  2.45829440207248e-01 2.23816453078200e-01
  3.28461785061313e-01 2.33040340737438e-01
  4.21364796414861e-01 2.59977028274578e-01
  5.69586131161125e-01 2.65774677957951e-01
  6.99339298948949e-01 2.59962107787495e-01
  7.69164112944948e-01 2.82718885130925e-01
  8.50775019957560e-01 2.80481637119241e-01
  9.46570895957407e-01 2.57253884117533e-01
  -9.51481214783883e-01 3.52628981373191e-01
  -8.52489943236484e-01 3.64888062901512e-01
  -7.33381812924698e-01 3.87577494115681e-01
  -6.38584856815401e-01 3.89817080541559e-01
  -5.38173878814324e-01 3.61900912842859e-01
  -4.17721175326754e-01 3.40524575934421e-01
  -3.25566476227843e-01 3.35719051570663e-01
  -2.44616359212814e-01 3.41118121297616e-01
  -1.61585959689161e-01 3.44151097668095e-01
  -6.74565420687355e-02 3.74814167185036e-01
  5.68339716261887e-02 3.87467829441174e-01
  1.58100964558513e-01 3.37520302386957e-01
  2.43809712777217e-01 3.23703991212377e-01
  3.48419179303528e-01 3.36913899564582e-01
  4.26865609651809e-01 3.25324729263630e-01
  5.24898386701020e-01 3.36853417361263e-01
  6.50335323330268e-01 3.48953278644884e-01
  7.58037021575549e-01 3.41643761085922e-01
  8.50286571542810e-01 3.64438074759359e-01
  9.49355171009962e-01 3.67772052633046e-01
  -9.38867046158843e-01 4.63244342956893e-01
  -8.38439066670533e-01 4.53348352007354e-01
  -7.49990330606209e-01 4.53841405971950e-01
  -6.45856530044025e-01 4.73172679403776e-01
  -5.26530567959818e-01 4.60548679074755e-01
  -4.09243951517249e-01 4.44042846101846e-01
  -3.06278056660729e-01 4.37092905265420e-01
  -2.18483588123678e-01 4.29409015578725e-01
  -1.41579376045253e-01 4.05356692051800e-01
  -5.20857505379619e-02 4.14430392256686e-01
  5.16956276900294e-02 4.55897454439098e-01
  1.28624402013176e-01 4.71246867782498e-01
  2.21365694412565e-01 4.62795218936900e-01
  3.64626035235592e-01 4.46932635761378e-01
  4.78883285150875e-01 4.28718713287399e-01
  5.38775955622023e-01 4.49640842392729e-01
  6.44950451508886e-01 4.58155631801642e-01
  7.69965630747074e-01 4.37488743621722e-01
  8.70845069380218e-01 4.67354975908739e-01
  9.66611613987302e-01 4.73293644787880e-01
  -9.47510294883774e-01 5.40949210134065e-01
  -8.44122862872456e-01 5.47982141472568e-01
  -7.68221541711853e-01 5.45082399638433e-01
  -6.90768991360633e-01 5.31587938611418e-01
  -5.67429147307607e-01 5.56922189093409e-01
  -4.35848930766180e-01 5.39757301285649e-01
  -3.31344604613914e-01 5.21709945457694e-01
  -2.23948834095992e-01 5.53612581217725e-01
  -1.44024591468075e-01 5.41251697167788e-01
  -7.36837272502611e-02 5.31720443114653e-01
  5.14422890115961e-02 5.50132726216511e-01
  1.49142375509287e-01 5.71235696265826e-01
  2.21608432693944e-01 5.65933926033709e-01
  3.44385907105264e-01 5.52920272186293e-01
  4.88460308125848e-01 5.65932609506121e-01
  5.80396490197620e-01 5.71224741522190e-01
  6.73074928776208e-01 5.60444038240890e-01
  7.69817067323383e-01 5.38694005888493e-01
  8.40590418585307e-01 5.39974619873154e-01
  9.41277703417647e-01 5.49598239796959e-01
  -9.68367889002345e-01 6.53138746588573e-01
  -8.86641065516111e-01 6.75161992779119e-01
  -7.72243605126622e-01 6.37229422466811e-01
  -6.73113159045491e-01 5.99295984728069e-01
  -5.70523672821831e-01 6.45871375997496e-01
  -4.40892587429593e-01 6.42748178897710e-01
  -3.43208308538057e-01 6.40846585016477e-01
  -2.48678536911573e-01 6.73505820751246e-01
  -1.42403308297504e-01 6.70749414323182e-01
  -4.28368878419276e-02 6.67978531949652e-01
  6.64689017580428e-02 6.69524034693704e-01
  1.71251506105338e-01 6.62157423947470e-01
  2.58875101783232e-01 6.48054996019586e-01
  3.42663431612993e-01 6.75769125546845e-01
  4.56247728272043e-01 6.86650931731545e-01
  5.69003239821698e-01 6.50987104761867e-01
  6.65082758154578e-01 6.51471817577587e-01
  7.62058179591458e-01 6.44255321175448e-01
  8.21152728057970e-01 6.40177742989868e-01
  9.18266313852716e-01 6.51855582867403e-01
  -9.52457421789293e-01 7.66214288895250e-01
  -8.74607177643122e-01 7.77880394410425e-01
  -7.73445242418195e-01 7.42129994553038e-01
  -6.68509715640016e-01 7.29679852112254e-01
  -5.52055683298836e-01 7.42283721820265e-01
  -4.29563359688090e-01 7.41495494884187e-01
  -3.28132540797818e-01 7.45444195817737e-01
  -2.24015592195352e-01 7.43636775292102e-01
  -1.33985124765500e-01 7.48180822819983e-01
  -5.95855033193197e-02 7.53328233974171e-01
  3.52802441619809e-02 7.66971295567483e-01
  1.64439511350495e-01 7.46417913619543e-01
  2.95525900033812e-01 7.30889572477312e-01
  3.78315733765974e-01 7.53112088827895e-01
  4.44059125763910e-01 7.62472865846960e-01
  5.55753871628553e-01 7.44072879880366e-01
  6.51112816732661e-01 7.51198978772592e-01
  7.36550493409382e-01 7.59431359124258e-01
  8.30043307274889e-01 7.45301377139775e-01
  9.37167119229105e-01 7.52032121585194e-01
  -9.55661701756855e-01 8.51267277421240e-01
  -8.45883831744591e-01 8.39560693200469e-01
  -7.46536360806384e-01 8.28526522162046e-01
  -6.73812878786240e-01 8.53943121564496e-01
  -5.54752370708441e-01 8.72296094151126e-01
  -4.40332777426708e-01 8.54563872247983e-01
  -3.52986105830077e-01 8.42106704327771e-01
  -2.42178882137325e-01 8.27939819807784e-01
  -1.36690739228614e-01 8.32514625805106e-01
  -8.07797325247119e-02 8.61539962216553e-01
  1.52319543939189e-02 8.55639870381838e-01
  1.41646426900358e-01 8.15700970351695e-01
  2.76295903384768e-01 8.19322374803162e-01
  3.77706603617165e-01 8.42786141308783e-01
  4.41137993105679e-01 8.48900165469959e-01
  5.79180693184550e-01 8.52385725531853e-01
  6.70384155874560e-01 8.44222867457688e-01
  7.43508506353428e-01 8.47161302200628e-01
  8.61686610975235e-01 8.61652241692590e-01
  9.59055211967867e-01 8.60867135242281e-01
  -9.60138430728200e-01 9.46723061948190e-01
  -8.44737054123452e-01 9.31699182305945e-01
  -7.37459120448754e-01 9.21261055306346e-01
  -6.56005270749520e-01 9.35262743993275e-01
  -5.59830193255190e-01 9.61001126688728e-01
  -4.65398431552830e-01 9.53851687774917e-01
  -3.77656956890801e-01 9.46414230803735e-01
  -2.71029354904804e-01 9.37734804730160e-01
  -1.40504596391832e-01 9.35412965283743e-01
  -4.92089850254500e-02 9.57716397793613e-01
  4.58409635012362e-02 9.42262695113761e-01
  1.46414376186500e-01 9.24519737371571e-01
  2.58193185348987e-01 9.38417962431087e-01
  3.62612261521919e-01 9.53562802179322e-01
  4.44929478914897e-01 9.43499736305512e-01
  5.70032317873242e-01 9.42651296993397e-01
  6.70721912986911e-01 9.46367789925058e-01
  7.61941708623555e-01 9.50010258248594e-01
  8.65749362483775e-01 9.69004784568552e-01
  9.55224037671869e-01 9.63356496983916e-01
