TITLE = "CFFC: 2D Advection Diffusion Equation Solution, Time Step/Iteration Level = 250, Time = 0"
VARIABLES = "x" \ 
"y" \ 
"u" \ 
"Vx" \ 
"Vy" \ 
"k" \ 
"s" \ 
"ExactSoln" \ 
ZONE T =  "Block Number = 0" \ 
I = 48 \ 
J = 24 \ 
F = POINT 
  -5.34090909090909e-01 -5.75000000000000e-01 1.00660443727680e-05  0.00000000000000e+00 0.00000000000000e+00 1 -6.0396266236608e-05 -0.014544486007151
  -5.11363636363636e-01 -5.75000000000000e-01 3.35534812425601e-06  0.00000000000000e+00 0.00000000000000e+00 1 -2.0132088745536e-05 -0.0048431574482587
  -4.88636363636364e-01 -5.75000000000000e-01 -3.35534812425601e-06  0.00000000000000e+00 0.00000000000000e+00 1 2.0132088745536e-05 0.0048431574482587
  -4.65909090909091e-01 -5.75000000000000e-01 -1.05255437881993e-05  0.00000000000000e+00 0.00000000000000e+00 1 6.3153262729196e-05 0.014544486007151
  -4.43181818181818e-01 -5.75000000000000e-01 -7.18375980601760e-06  0.00000000000000e+00 0.00000000000000e+00 1 4.3102558836106e-05 0.024290902095131
  -4.20454545454545e-01 -5.75000000000000e-01 -8.59172839035721e-06  0.00000000000000e+00 0.00000000000000e+00 1 5.1550370342143e-05 0.034112619349083
  -3.97727272727273e-01 -5.75000000000000e-01 -1.21356410981294e-05  0.00000000000000e+00 0.00000000000000e+00 1 7.2813846588776e-05 0.044040084837549
  -3.75000000000000e-01 -5.75000000000000e-01 -1.70024721647538e-05  0.00000000000000e+00 0.00000000000000e+00 1 0.00010201483298852 0.054104073445854
  -3.52272727272727e-01 -5.75000000000000e-01 -2.32089122426948e-05  0.00000000000000e+00 0.00000000000000e+00 1 0.00013925347345617 0.064335783277451
  -3.29545454545455e-01 -5.75000000000000e-01 -3.09109450860878e-05  0.00000000000000e+00 0.00000000000000e+00 1 0.00018546567051653 0.074766932367231
  -3.06818181818182e-01 -5.75000000000000e-01 -4.02395846312853e-05  0.00000000000000e+00 0.00000000000000e+00 1 0.00024143750778771 0.08542985700661
  -2.84090909090909e-01 -5.75000000000000e-01 -5.12845503215509e-05  0.00000000000000e+00 0.00000000000000e+00 1 0.00030770730192931 0.09635761198519
  -2.61363636363636e-01 -5.75000000000000e-01 -6.40898922620592e-05  0.00000000000000e+00 0.00000000000000e+00 1 0.00038453935357236 0.10758407305975
  -2.38636363636364e-01 -5.75000000000000e-01 -7.86511489036246e-05  0.00000000000000e+00 0.00000000000000e+00 1 0.00047190689342175 0.11914404196822
  -2.15909090909091e-01 -5.75000000000000e-01 -9.49136559123820e-05  0.00000000000000e+00 0.00000000000000e+00 1 0.00056948193547429 0.13107335431414
  -1.93181818181818e-01 -5.75000000000000e-01 -1.12772117726895e-04  0.00000000000000e+00 0.00000000000000e+00 1 0.00067663270636137 0.14340899065613
  -1.70454545454545e-01 -5.75000000000000e-01 -1.32071488958801e-04  0.00000000000000e+00 0.00000000000000e+00 1 0.00079242893375281 0.15618919114667
  -1.47727272727273e-01 -5.75000000000000e-01 -1.52609164404405e-04  0.00000000000000e+00 0.00000000000000e+00 1 0.00091565498642643 0.16945357407553
  -1.25000000000000e-01 -5.75000000000000e-01 -1.74138440809130e-04  0.00000000000000e+00 0.00000000000000e+00 1 0.0010448306448548 0.18324325868548
  -1.02272727272727e-01 -5.75000000000000e-01 -1.96373191471921e-04  0.00000000000000e+00 0.00000000000000e+00 1 0.0011782391488315 0.19760099264088
  -7.95454545454545e-02 -5.75000000000000e-01 -2.18993682552571e-04  0.00000000000000e+00 0.00000000000000e+00 1 0.0013139620953154 0.21257128454429
  -5.68181818181818e-02 -5.75000000000000e-01 -2.41653448839030e-04  0.00000000000000e+00 0.00000000000000e+00 1 0.0014499206930342 0.22820054191204
  -3.40909090909091e-02 -5.75000000000000e-01 -2.63987123297449e-04  0.00000000000000e+00 0.00000000000000e+00 1 0.0015839227397847 0.24453721503627
  -1.13636363636364e-02 -5.75000000000000e-01 -2.85619062002918e-04  0.00000000000000e+00 0.00000000000000e+00 1 0.0017137143720175 0.26163194717961
  1.13636363636364e-02 -5.75000000000000e-01 -3.06172506903124e-04  0.00000000000000e+00 0.00000000000000e+00 1 0.0018370350414187 0.27953773156797
  3.40909090909091e-02 -5.75000000000000e-01 -3.25278872236101e-04  0.00000000000000e+00 0.00000000000000e+00 1 0.0019516732334166 0.29831007566818
  5.68181818181818e-02 -5.75000000000000e-01 -3.42586530815203e-04  0.00000000000000e+00 0.00000000000000e+00 1 0.0020555191848912 0.31800717325967
  7.95454545454546e-02 -5.75000000000000e-01 -3.57768244740930e-04  0.00000000000000e+00 0.00000000000000e+00 1 0.0021466094684456 0.33869008483368
  1.02272727272727e-01 -5.75000000000000e-01 -3.70526197161103e-04  0.00000000000000e+00 0.00000000000000e+00 1 0.0022231571829666 0.36042292687924
  1.25000000000000e-01 -5.75000000000000e-01 -3.80593537746832e-04  0.00000000000000e+00 0.00000000000000e+00 1 0.002283561226481 0.38327307064256
  1.47727272727273e-01 -5.75000000000000e-01 -3.87731573713579e-04  0.00000000000000e+00 0.00000000000000e+00 1 0.0023263894422815 0.40731135097617
  1.70454545454545e-01 -5.75000000000000e-01 -3.91722323652255e-04  0.00000000000000e+00 0.00000000000000e+00 1 0.0023503339419135 0.43261228592514
  1.93181818181818e-01 -5.75000000000000e-01 -3.92357139041621e-04  0.00000000000000e+00 0.00000000000000e+00 1 0.0023541428342497 0.45925430773108
  2.15909090909091e-01 -5.75000000000000e-01 -3.89423401834788e-04  0.00000000000000e+00 0.00000000000000e+00 1 0.0023365404110087 0.48732000597004
  2.38636363636364e-01 -5.75000000000000e-01 -3.82692681227925e-04  0.00000000000000e+00 0.00000000000000e+00 1 0.0022961560873676 0.51689638357804
  2.61363636363636e-01 -5.75000000000000e-01 -3.71914784348726e-04  0.00000000000000e+00 0.00000000000000e+00 1 0.0022314887060924 0.54807512655795
  2.84090909090909e-01 -5.75000000000000e-01 -3.56822394021905e-04  0.00000000000000e+00 0.00000000000000e+00 1 0.0021409343641314 0.5809528882037
  3.06818181818182e-01 -5.75000000000000e-01 -3.37150044308010e-04  0.00000000000000e+00 0.00000000000000e+00 1 0.0020229002658481 0.61563158872296
  3.29545454545455e-01 -5.75000000000000e-01 -3.12668865134924e-04  0.00000000000000e+00 0.00000000000000e+00 1 0.0018760131908095 0.6522187311872
  3.52272727272727e-01 -5.75000000000000e-01 -2.83234908017627e-04  0.00000000000000e+00 0.00000000000000e+00 1 0.0016994094481058 0.69082773478836
  3.75000000000000e-01 -5.75000000000000e-01 -2.48854303889878e-04  0.00000000000000e+00 0.00000000000000e+00 1 0.0014931258233393 0.7315782864354
  3.97727272727273e-01 -5.75000000000000e-01 -2.09938585211455e-04  0.00000000000000e+00 0.00000000000000e+00 1 0.0012596315112687 0.77459671178067
  4.20454545454545e-01 -5.75000000000000e-01 -1.70051928053638e-04  0.00000000000000e+00 0.00000000000000e+00 1 0.0010203115683218 0.8200163668261
  4.43181818181818e-01 -5.75000000000000e-01 -1.47602366894928e-04  0.00000000000000e+00 0.00000000000000e+00 1 0.00088561420136957 0.86797805132337
  4.65909090909091e-01 -5.75000000000000e-01 -1.90905249154882e-04  0.00000000000000e+00 0.00000000000000e+00 1 0.0011454314949293 0.91863044524946
  4.88636363636364e-01 -5.75000000000000e-01 -4.59568323945003e-05  0.00000000000000e+00 0.00000000000000e+00 1 0.000275740994367 0.97213056971075
  5.11363636363636e-01 -5.75000000000000e-01 4.00013787049718e+00  0.00000000000000e+00 0.00000000000000e+00 1 -24.000827222983 1.0286442737044
  5.34090909090909e-01 -5.75000000000000e-01 6.00022978416197e+00  0.00000000000000e+00 0.00000000000000e+00 1 -36.001378704972 1.0883467482457
  -5.34090909090909e-01 -5.25000000000000e-01 1.00660443727680e-05  0.00000000000000e+00 0.00000000000000e+00 1 -6.0396266236608e-05 -0.014544486007151
  -5.11363636363636e-01 -5.25000000000000e-01 3.35534812425601e-06  0.00000000000000e+00 0.00000000000000e+00 1 -2.0132088745536e-05 -0.0048431574482587
  -4.88636363636364e-01 -5.25000000000000e-01 -3.35534812425601e-06  0.00000000000000e+00 0.00000000000000e+00 1 2.0132088745536e-05 0.0048431574482587
  -4.65909090909091e-01 -5.25000000000000e-01 -1.05255437881993e-05  0.00000000000000e+00 0.00000000000000e+00 1 6.3153262729196e-05 0.014544486007151
  -4.43181818181818e-01 -5.25000000000000e-01 -7.18375980601760e-06  0.00000000000000e+00 0.00000000000000e+00 1 4.3102558836106e-05 0.024290902095131
  -4.20454545454545e-01 -5.25000000000000e-01 -8.59172839035721e-06  0.00000000000000e+00 0.00000000000000e+00 1 5.1550370342143e-05 0.034112619349083
  -3.97727272727273e-01 -5.25000000000000e-01 -1.21356410981294e-05  0.00000000000000e+00 0.00000000000000e+00 1 7.2813846588776e-05 0.044040084837549
  -3.75000000000000e-01 -5.25000000000000e-01 -1.70024721647538e-05  0.00000000000000e+00 0.00000000000000e+00 1 0.00010201483298852 0.054104073445854
  -3.52272727272727e-01 -5.25000000000000e-01 -2.32089122426948e-05  0.00000000000000e+00 0.00000000000000e+00 1 0.00013925347345617 0.064335783277451
  -3.29545454545455e-01 -5.25000000000000e-01 -3.09109450860878e-05  0.00000000000000e+00 0.00000000000000e+00 1 0.00018546567051653 0.074766932367231
  -3.06818181818182e-01 -5.25000000000000e-01 -4.02395846312853e-05  0.00000000000000e+00 0.00000000000000e+00 1 0.00024143750778771 0.08542985700661
  -2.84090909090909e-01 -5.25000000000000e-01 -5.12845503215509e-05  0.00000000000000e+00 0.00000000000000e+00 1 0.00030770730192931 0.09635761198519
  -2.61363636363636e-01 -5.25000000000000e-01 -6.40898922620592e-05  0.00000000000000e+00 0.00000000000000e+00 1 0.00038453935357236 0.10758407305975
  -2.38636363636364e-01 -5.25000000000000e-01 -7.86511489036246e-05  0.00000000000000e+00 0.00000000000000e+00 1 0.00047190689342175 0.11914404196822
  -2.15909090909091e-01 -5.25000000000000e-01 -9.49136559123820e-05  0.00000000000000e+00 0.00000000000000e+00 1 0.00056948193547429 0.13107335431414
  -1.93181818181818e-01 -5.25000000000000e-01 -1.12772117726895e-04  0.00000000000000e+00 0.00000000000000e+00 1 0.00067663270636137 0.14340899065613
  -1.70454545454545e-01 -5.25000000000000e-01 -1.32071488958801e-04  0.00000000000000e+00 0.00000000000000e+00 1 0.00079242893375281 0.15618919114667
  -1.47727272727273e-01 -5.25000000000000e-01 -1.52609164404405e-04  0.00000000000000e+00 0.00000000000000e+00 1 0.00091565498642643 0.16945357407553
  -1.25000000000000e-01 -5.25000000000000e-01 -1.74138440809130e-04  0.00000000000000e+00 0.00000000000000e+00 1 0.0010448306448548 0.18324325868548
  -1.02272727272727e-01 -5.25000000000000e-01 -1.96373191471921e-04  0.00000000000000e+00 0.00000000000000e+00 1 0.0011782391488315 0.19760099264088
  -7.95454545454545e-02 -5.25000000000000e-01 -2.18993682552571e-04  0.00000000000000e+00 0.00000000000000e+00 1 0.0013139620953154 0.21257128454429
  -5.68181818181818e-02 -5.25000000000000e-01 -2.41653448839030e-04  0.00000000000000e+00 0.00000000000000e+00 1 0.0014499206930342 0.22820054191204
  -3.40909090909091e-02 -5.25000000000000e-01 -2.63987123297449e-04  0.00000000000000e+00 0.00000000000000e+00 1 0.0015839227397847 0.24453721503627
  -1.13636363636364e-02 -5.25000000000000e-01 -2.85619062002918e-04  0.00000000000000e+00 0.00000000000000e+00 1 0.0017137143720175 0.26163194717961
  1.13636363636364e-02 -5.25000000000000e-01 -3.06172506903124e-04  0.00000000000000e+00 0.00000000000000e+00 1 0.0018370350414187 0.27953773156797
  3.40909090909091e-02 -5.25000000000000e-01 -3.25278872236101e-04  0.00000000000000e+00 0.00000000000000e+00 1 0.0019516732334166 0.29831007566818
  5.68181818181818e-02 -5.25000000000000e-01 -3.42586530815203e-04  0.00000000000000e+00 0.00000000000000e+00 1 0.0020555191848912 0.31800717325967
  7.95454545454546e-02 -5.25000000000000e-01 -3.57768244740930e-04  0.00000000000000e+00 0.00000000000000e+00 1 0.0021466094684456 0.33869008483368
  1.02272727272727e-01 -5.25000000000000e-01 -3.70526197161103e-04  0.00000000000000e+00 0.00000000000000e+00 1 0.0022231571829666 0.36042292687924
  1.25000000000000e-01 -5.25000000000000e-01 -3.80593537746832e-04  0.00000000000000e+00 0.00000000000000e+00 1 0.002283561226481 0.38327307064256
  1.47727272727273e-01 -5.25000000000000e-01 -3.87731573713579e-04  0.00000000000000e+00 0.00000000000000e+00 1 0.0023263894422815 0.40731135097617
  1.70454545454545e-01 -5.25000000000000e-01 -3.91722323652255e-04  0.00000000000000e+00 0.00000000000000e+00 1 0.0023503339419135 0.43261228592514
  1.93181818181818e-01 -5.25000000000000e-01 -3.92357139041621e-04  0.00000000000000e+00 0.00000000000000e+00 1 0.0023541428342497 0.45925430773108
  2.15909090909091e-01 -5.25000000000000e-01 -3.89423401834788e-04  0.00000000000000e+00 0.00000000000000e+00 1 0.0023365404110087 0.48732000597004
  2.38636363636364e-01 -5.25000000000000e-01 -3.82692681227925e-04  0.00000000000000e+00 0.00000000000000e+00 1 0.0022961560873676 0.51689638357804
  2.61363636363636e-01 -5.25000000000000e-01 -3.71914784348726e-04  0.00000000000000e+00 0.00000000000000e+00 1 0.0022314887060924 0.54807512655795
  2.84090909090909e-01 -5.25000000000000e-01 -3.56822394021905e-04  0.00000000000000e+00 0.00000000000000e+00 1 0.0021409343641314 0.5809528882037
  3.06818181818182e-01 -5.25000000000000e-01 -3.37150044308010e-04  0.00000000000000e+00 0.00000000000000e+00 1 0.0020229002658481 0.61563158872296
  3.29545454545455e-01 -5.25000000000000e-01 -3.12668865134924e-04  0.00000000000000e+00 0.00000000000000e+00 1 0.0018760131908095 0.6522187311872
  3.52272727272727e-01 -5.25000000000000e-01 -2.83234908017627e-04  0.00000000000000e+00 0.00000000000000e+00 1 0.0016994094481058 0.69082773478836
  3.75000000000000e-01 -5.25000000000000e-01 -2.48854303889878e-04  0.00000000000000e+00 0.00000000000000e+00 1 0.0014931258233393 0.7315782864354
  3.97727272727273e-01 -5.25000000000000e-01 -2.09938585211455e-04  0.00000000000000e+00 0.00000000000000e+00 1 0.0012596315112687 0.77459671178067
  4.20454545454545e-01 -5.25000000000000e-01 -1.70051928053638e-04  0.00000000000000e+00 0.00000000000000e+00 1 0.0010203115683218 0.8200163668261
  4.43181818181818e-01 -5.25000000000000e-01 -1.47602366894928e-04  0.00000000000000e+00 0.00000000000000e+00 1 0.00088561420136957 0.86797805132337
  4.65909090909091e-01 -5.25000000000000e-01 -1.90905249154882e-04  0.00000000000000e+00 0.00000000000000e+00 1 0.0011454314949293 0.91863044524946
  4.88636363636364e-01 -5.25000000000000e-01 -4.59568323945003e-05  0.00000000000000e+00 0.00000000000000e+00 1 0.000275740994367 0.97213056971075
  5.11363636363636e-01 -5.25000000000000e-01 4.00013787049718e+00  0.00000000000000e+00 0.00000000000000e+00 1 -24.000827222983 1.0286442737044
  5.34090909090909e-01 -5.25000000000000e-01 6.00022978416197e+00  0.00000000000000e+00 0.00000000000000e+00 1 -36.001378704972 1.0883467482457
  -5.34090909090909e-01 -4.75000000000000e-01 1.00660443727680e-05  0.00000000000000e+00 0.00000000000000e+00 1 -6.0396266236608e-05 -0.014544486007151
  -5.11363636363636e-01 -4.75000000000000e-01 3.35534812425601e-06  0.00000000000000e+00 0.00000000000000e+00 1 -2.0132088745536e-05 -0.0048431574482587
  -4.88636363636364e-01 -4.75000000000000e-01 -3.35534812425601e-06  0.00000000000000e+00 0.00000000000000e+00 1 2.0132088745536e-05 0.0048431574482587
  -4.65909090909091e-01 -4.75000000000000e-01 -1.05255437881993e-05  0.00000000000000e+00 0.00000000000000e+00 1 6.3153262729196e-05 0.014544486007151
  -4.43181818181818e-01 -4.75000000000000e-01 -7.18375980601760e-06  0.00000000000000e+00 0.00000000000000e+00 1 4.3102558836106e-05 0.024290902095131
  -4.20454545454545e-01 -4.75000000000000e-01 -8.59172839035721e-06  0.00000000000000e+00 0.00000000000000e+00 1 5.1550370342143e-05 0.034112619349083
  -3.97727272727273e-01 -4.75000000000000e-01 -1.21356410981294e-05  0.00000000000000e+00 0.00000000000000e+00 1 7.2813846588776e-05 0.044040084837549
  -3.75000000000000e-01 -4.75000000000000e-01 -1.70024721647538e-05  0.00000000000000e+00 0.00000000000000e+00 1 0.00010201483298852 0.054104073445854
  -3.52272727272727e-01 -4.75000000000000e-01 -2.32089122426948e-05  0.00000000000000e+00 0.00000000000000e+00 1 0.00013925347345617 0.064335783277451
  -3.29545454545455e-01 -4.75000000000000e-01 -3.09109450860878e-05  0.00000000000000e+00 0.00000000000000e+00 1 0.00018546567051653 0.074766932367231
  -3.06818181818182e-01 -4.75000000000000e-01 -4.02395846312853e-05  0.00000000000000e+00 0.00000000000000e+00 1 0.00024143750778771 0.08542985700661
  -2.84090909090909e-01 -4.75000000000000e-01 -5.12845503215509e-05  0.00000000000000e+00 0.00000000000000e+00 1 0.00030770730192931 0.09635761198519
  -2.61363636363636e-01 -4.75000000000000e-01 -6.40898922620592e-05  0.00000000000000e+00 0.00000000000000e+00 1 0.00038453935357236 0.10758407305975
  -2.38636363636364e-01 -4.75000000000000e-01 -7.86511489036246e-05  0.00000000000000e+00 0.00000000000000e+00 1 0.00047190689342175 0.11914404196822
  -2.15909090909091e-01 -4.75000000000000e-01 -9.49136559123820e-05  0.00000000000000e+00 0.00000000000000e+00 1 0.00056948193547429 0.13107335431414
  -1.93181818181818e-01 -4.75000000000000e-01 -1.12772117726895e-04  0.00000000000000e+00 0.00000000000000e+00 1 0.00067663270636137 0.14340899065613
  -1.70454545454545e-01 -4.75000000000000e-01 -1.32071488958801e-04  0.00000000000000e+00 0.00000000000000e+00 1 0.00079242893375281 0.15618919114667
  -1.47727272727273e-01 -4.75000000000000e-01 -1.52609164404405e-04  0.00000000000000e+00 0.00000000000000e+00 1 0.00091565498642643 0.16945357407553
  -1.25000000000000e-01 -4.75000000000000e-01 -1.74138440809130e-04  0.00000000000000e+00 0.00000000000000e+00 1 0.0010448306448548 0.18324325868548
  -1.02272727272727e-01 -4.75000000000000e-01 -1.96373191471921e-04  0.00000000000000e+00 0.00000000000000e+00 1 0.0011782391488315 0.19760099264088
  -7.95454545454545e-02 -4.75000000000000e-01 -2.18993682552571e-04  0.00000000000000e+00 0.00000000000000e+00 1 0.0013139620953154 0.21257128454429
  -5.68181818181818e-02 -4.75000000000000e-01 -2.41653448839030e-04  0.00000000000000e+00 0.00000000000000e+00 1 0.0014499206930342 0.22820054191204
  -3.40909090909091e-02 -4.75000000000000e-01 -2.63987123297449e-04  0.00000000000000e+00 0.00000000000000e+00 1 0.0015839227397847 0.24453721503627
  -1.13636363636364e-02 -4.75000000000000e-01 -2.85619062002918e-04  0.00000000000000e+00 0.00000000000000e+00 1 0.0017137143720175 0.26163194717961
  1.13636363636364e-02 -4.75000000000000e-01 -3.06172506903124e-04  0.00000000000000e+00 0.00000000000000e+00 1 0.0018370350414187 0.27953773156797
  3.40909090909091e-02 -4.75000000000000e-01 -3.25278872236101e-04  0.00000000000000e+00 0.00000000000000e+00 1 0.0019516732334166 0.29831007566818
  5.68181818181818e-02 -4.75000000000000e-01 -3.42586530815203e-04  0.00000000000000e+00 0.00000000000000e+00 1 0.0020555191848912 0.31800717325967
  7.95454545454546e-02 -4.75000000000000e-01 -3.57768244740930e-04  0.00000000000000e+00 0.00000000000000e+00 1 0.0021466094684456 0.33869008483368
  1.02272727272727e-01 -4.75000000000000e-01 -3.70526197161103e-04  0.00000000000000e+00 0.00000000000000e+00 1 0.0022231571829666 0.36042292687924
  1.25000000000000e-01 -4.75000000000000e-01 -3.80593537746832e-04  0.00000000000000e+00 0.00000000000000e+00 1 0.002283561226481 0.38327307064256
  1.47727272727273e-01 -4.75000000000000e-01 -3.87731573713579e-04  0.00000000000000e+00 0.00000000000000e+00 1 0.0023263894422815 0.40731135097617
  1.70454545454545e-01 -4.75000000000000e-01 -3.91722323652255e-04  0.00000000000000e+00 0.00000000000000e+00 1 0.0023503339419135 0.43261228592514
  1.93181818181818e-01 -4.75000000000000e-01 -3.92357139041621e-04  0.00000000000000e+00 0.00000000000000e+00 1 0.0023541428342497 0.45925430773108
  2.15909090909091e-01 -4.75000000000000e-01 -3.89423401834788e-04  0.00000000000000e+00 0.00000000000000e+00 1 0.0023365404110087 0.48732000597004
  2.38636363636364e-01 -4.75000000000000e-01 -3.82692681227925e-04  0.00000000000000e+00 0.00000000000000e+00 1 0.0022961560873676 0.51689638357804
  2.61363636363636e-01 -4.75000000000000e-01 -3.71914784348726e-04  0.00000000000000e+00 0.00000000000000e+00 1 0.0022314887060924 0.54807512655795
  2.84090909090909e-01 -4.75000000000000e-01 -3.56822394021905e-04  0.00000000000000e+00 0.00000000000000e+00 1 0.0021409343641314 0.5809528882037
  3.06818181818182e-01 -4.75000000000000e-01 -3.37150044308010e-04  0.00000000000000e+00 0.00000000000000e+00 1 0.0020229002658481 0.61563158872296
  3.29545454545455e-01 -4.75000000000000e-01 -3.12668865134924e-04  0.00000000000000e+00 0.00000000000000e+00 1 0.0018760131908095 0.6522187311872
  3.52272727272727e-01 -4.75000000000000e-01 -2.83234908017627e-04  0.00000000000000e+00 0.00000000000000e+00 1 0.0016994094481058 0.69082773478836
  3.75000000000000e-01 -4.75000000000000e-01 -2.48854303889878e-04  0.00000000000000e+00 0.00000000000000e+00 1 0.0014931258233393 0.7315782864354
  3.97727272727273e-01 -4.75000000000000e-01 -2.09938585211455e-04  0.00000000000000e+00 0.00000000000000e+00 1 0.0012596315112687 0.77459671178067
  4.20454545454545e-01 -4.75000000000000e-01 -1.70051928053638e-04  0.00000000000000e+00 0.00000000000000e+00 1 0.0010203115683218 0.8200163668261
  4.43181818181818e-01 -4.75000000000000e-01 -1.47602366894928e-04  0.00000000000000e+00 0.00000000000000e+00 1 0.00088561420136957 0.86797805132337
  4.65909090909091e-01 -4.75000000000000e-01 -1.90905249154882e-04  0.00000000000000e+00 0.00000000000000e+00 1 0.0011454314949293 0.91863044524946
  4.88636363636364e-01 -4.75000000000000e-01 -4.59568323945003e-05  0.00000000000000e+00 0.00000000000000e+00 1 0.000275740994367 0.97213056971075
  5.11363636363636e-01 -4.75000000000000e-01 4.00013787049718e+00  0.00000000000000e+00 0.00000000000000e+00 1 -24.000827222983 1.0286442737044
  5.34090909090909e-01 -4.75000000000000e-01 6.00022978416197e+00  0.00000000000000e+00 0.00000000000000e+00 1 -36.001378704972 1.0883467482457
  -5.34090909090909e-01 -4.25000000000000e-01 1.00660443727680e-05  0.00000000000000e+00 0.00000000000000e+00 1 -6.0396266236608e-05 -0.014544486007151
  -5.11363636363636e-01 -4.25000000000000e-01 3.35534812425601e-06  0.00000000000000e+00 0.00000000000000e+00 1 -2.0132088745536e-05 -0.0048431574482587
  -4.88636363636364e-01 -4.25000000000000e-01 -3.35534812425601e-06  0.00000000000000e+00 0.00000000000000e+00 1 2.0132088745536e-05 0.0048431574482587
  -4.65909090909091e-01 -4.25000000000000e-01 -1.05255437881993e-05  0.00000000000000e+00 0.00000000000000e+00 1 6.3153262729196e-05 0.014544486007151
  -4.43181818181818e-01 -4.25000000000000e-01 -7.18375980601760e-06  0.00000000000000e+00 0.00000000000000e+00 1 4.3102558836106e-05 0.024290902095131
  -4.20454545454545e-01 -4.25000000000000e-01 -8.59172839035721e-06  0.00000000000000e+00 0.00000000000000e+00 1 5.1550370342143e-05 0.034112619349083
  -3.97727272727273e-01 -4.25000000000000e-01 -1.21356410981224e-05  0.00000000000000e+00 0.00000000000000e+00 1 7.2813846588735e-05 0.044040084837549
  -3.75000000000000e-01 -4.25000000000000e-01 -1.70024721647399e-05  0.00000000000000e+00 0.00000000000000e+00 1 0.00010201483298844 0.054104073445854
  -3.52272727272727e-01 -4.25000000000000e-01 -2.32089122426948e-05  0.00000000000000e+00 0.00000000000000e+00 1 0.00013925347345617 0.064335783277451
  -3.29545454545455e-01 -4.25000000000000e-01 -3.09109450860878e-05  0.00000000000000e+00 0.00000000000000e+00 1 0.00018546567051653 0.074766932367231
  -3.06818181818182e-01 -4.25000000000000e-01 -4.02395846312853e-05  0.00000000000000e+00 0.00000000000000e+00 1 0.00024143750778771 0.08542985700661
  -2.84090909090909e-01 -4.25000000000000e-01 -5.12845503215509e-05  0.00000000000000e+00 0.00000000000000e+00 1 0.00030770730192931 0.09635761198519
  -2.61363636363636e-01 -4.25000000000000e-01 -6.40898922620592e-05  0.00000000000000e+00 0.00000000000000e+00 1 0.00038453935357236 0.10758407305975
  -2.38636363636364e-01 -4.25000000000000e-01 -7.86511489036246e-05  0.00000000000000e+00 0.00000000000000e+00 1 0.00047190689342175 0.11914404196822
  -2.15909090909091e-01 -4.25000000000000e-01 -9.49136559123820e-05  0.00000000000000e+00 0.00000000000000e+00 1 0.00056948193547429 0.13107335431414
  -1.93181818181818e-01 -4.25000000000000e-01 -1.12772117726895e-04  0.00000000000000e+00 0.00000000000000e+00 1 0.00067663270636137 0.14340899065613
  -1.70454545454545e-01 -4.25000000000000e-01 -1.32071488958801e-04  0.00000000000000e+00 0.00000000000000e+00 1 0.00079242893375281 0.15618919114667
  -1.47727272727273e-01 -4.25000000000000e-01 -1.52609164404405e-04  0.00000000000000e+00 0.00000000000000e+00 1 0.00091565498642643 0.16945357407553
  -1.25000000000000e-01 -4.25000000000000e-01 -1.74138440809130e-04  0.00000000000000e+00 0.00000000000000e+00 1 0.0010448306448548 0.18324325868548
  -1.02272727272727e-01 -4.25000000000000e-01 -1.96373191471977e-04  0.00000000000000e+00 0.00000000000000e+00 1 0.0011782391488319 0.19760099264088
  -7.95454545454545e-02 -4.25000000000000e-01 -2.18993682552571e-04  0.00000000000000e+00 0.00000000000000e+00 1 0.0013139620953154 0.21257128454429
  -5.68181818181818e-02 -4.25000000000000e-01 -2.41653448839030e-04  0.00000000000000e+00 0.00000000000000e+00 1 0.0014499206930342 0.22820054191204
  -3.40909090909091e-02 -4.25000000000000e-01 -2.63987123297449e-04  0.00000000000000e+00 0.00000000000000e+00 1 0.0015839227397847 0.24453721503627
  -1.13636363636364e-02 -4.25000000000000e-01 -2.85619062002918e-04  0.00000000000000e+00 0.00000000000000e+00 1 0.0017137143720175 0.26163194717961
  1.13636363636364e-02 -4.25000000000000e-01 -3.06172506903124e-04  0.00000000000000e+00 0.00000000000000e+00 1 0.0018370350414187 0.27953773156797
  3.40909090909091e-02 -4.25000000000000e-01 -3.25278872236101e-04  0.00000000000000e+00 0.00000000000000e+00 1 0.0019516732334166 0.29831007566818
  5.68181818181818e-02 -4.25000000000000e-01 -3.42586530815203e-04  0.00000000000000e+00 0.00000000000000e+00 1 0.0020555191848912 0.31800717325967
  7.95454545454546e-02 -4.25000000000000e-01 -3.57768244740930e-04  0.00000000000000e+00 0.00000000000000e+00 1 0.0021466094684456 0.33869008483368
  1.02272727272727e-01 -4.25000000000000e-01 -3.70526197161103e-04  0.00000000000000e+00 0.00000000000000e+00 1 0.0022231571829666 0.36042292687924
  1.25000000000000e-01 -4.25000000000000e-01 -3.80593537746832e-04  0.00000000000000e+00 0.00000000000000e+00 1 0.002283561226481 0.38327307064256
  1.47727272727273e-01 -4.25000000000000e-01 -3.87731573713579e-04  0.00000000000000e+00 0.00000000000000e+00 1 0.0023263894422815 0.40731135097617
  1.70454545454545e-01 -4.25000000000000e-01 -3.91722323652255e-04  0.00000000000000e+00 0.00000000000000e+00 1 0.0023503339419135 0.43261228592514
  1.93181818181818e-01 -4.25000000000000e-01 -3.92357139041621e-04  0.00000000000000e+00 0.00000000000000e+00 1 0.0023541428342497 0.45925430773108
  2.15909090909091e-01 -4.25000000000000e-01 -3.89423401834788e-04  0.00000000000000e+00 0.00000000000000e+00 1 0.0023365404110087 0.48732000597004
  2.38636363636364e-01 -4.25000000000000e-01 -3.82692681227925e-04  0.00000000000000e+00 0.00000000000000e+00 1 0.0022961560873676 0.51689638357804
  2.61363636363636e-01 -4.25000000000000e-01 -3.71914784348726e-04  0.00000000000000e+00 0.00000000000000e+00 1 0.0022314887060924 0.54807512655795
  2.84090909090909e-01 -4.25000000000000e-01 -3.56822394021905e-04  0.00000000000000e+00 0.00000000000000e+00 1 0.0021409343641314 0.5809528882037
  3.06818181818182e-01 -4.25000000000000e-01 -3.37150044308010e-04  0.00000000000000e+00 0.00000000000000e+00 1 0.0020229002658481 0.61563158872296
  3.29545454545455e-01 -4.25000000000000e-01 -3.12668865134924e-04  0.00000000000000e+00 0.00000000000000e+00 1 0.0018760131908095 0.6522187311872
  3.52272727272727e-01 -4.25000000000000e-01 -2.83234908017627e-04  0.00000000000000e+00 0.00000000000000e+00 1 0.0016994094481058 0.69082773478836
  3.75000000000000e-01 -4.25000000000000e-01 -2.48854303889878e-04  0.00000000000000e+00 0.00000000000000e+00 1 0.0014931258233393 0.7315782864354
  3.97727272727273e-01 -4.25000000000000e-01 -2.09938585211455e-04  0.00000000000000e+00 0.00000000000000e+00 1 0.0012596315112687 0.77459671178067
  4.20454545454545e-01 -4.25000000000000e-01 -1.70051928053638e-04  0.00000000000000e+00 0.00000000000000e+00 1 0.0010203115683218 0.8200163668261
  4.43181818181818e-01 -4.25000000000000e-01 -1.47602366894928e-04  0.00000000000000e+00 0.00000000000000e+00 1 0.00088561420136957 0.86797805132337
  4.65909090909091e-01 -4.25000000000000e-01 -1.90905249154882e-04  0.00000000000000e+00 0.00000000000000e+00 1 0.0011454314949293 0.91863044524946
  4.88636363636364e-01 -4.25000000000000e-01 -4.59568323945003e-05  0.00000000000000e+00 0.00000000000000e+00 1 0.000275740994367 0.97213056971075
  5.11363636363636e-01 -4.25000000000000e-01 4.00013787049718e+00  0.00000000000000e+00 0.00000000000000e+00 1 -24.000827222983 1.0286442737044
  5.34090909090909e-01 -4.25000000000000e-01 6.00022978416197e+00  0.00000000000000e+00 0.00000000000000e+00 1 -36.001378704972 1.0883467482457
  -5.34090909090909e-01 -3.75000000000000e-01 1.00660443727758e-05  0.00000000000000e+00 0.00000000000000e+00 1 -6.0396266236655e-05 -0.014544486007151
  -5.11363636363636e-01 -3.75000000000000e-01 3.35534812425861e-06  0.00000000000000e+00 0.00000000000000e+00 1 -2.0132088745552e-05 -0.0048431574482587
  -4.88636363636364e-01 -3.75000000000000e-01 -3.35534812425861e-06  0.00000000000000e+00 0.00000000000000e+00 1 2.0132088745552e-05 0.0048431574482587
  -4.65909090909091e-01 -3.75000000000000e-01 -1.05255437882028e-05  0.00000000000000e+00 0.00000000000000e+00 1 6.3153262729217e-05 0.014544486007151
  -4.43181818181818e-01 -3.75000000000000e-01 -7.18375980601760e-06  0.00000000000000e+00 0.00000000000000e+00 1 4.3102558836106e-05 0.024290902095131
  -4.20454545454545e-01 -3.75000000000000e-01 -8.59172839036415e-06  0.00000000000000e+00 0.00000000000000e+00 1 5.1550370342185e-05 0.034112619349083
  -3.97727272727273e-01 -3.75000000000000e-01 -1.21356410981224e-05  0.00000000000000e+00 0.00000000000000e+00 1 7.2813846588735e-05 0.044040084837549