TITLE = "CFFC: 2D Advection Diffusion Equation Solution, Time Step/Iteration Level = 1000, Time = 5.5918425700107"
VARIABLES = "x" \ 
"y" \ 
"u" \ 
"Vx" \ 
"Vy" \ 
"k" \ 
"s" \ 
"ExactSoln" \ 
ZONE T =  "Block Number = 0" \ 
I = 10 \ 
J = 12 \ 
F = POINT 
  -1.06250000000008e+00 -1.04687500000008e+00 -1.27856152457973e-07  5.23437500000039e+00 -5.31250000000040e+00 0 0 0
  -1.02083333333330e+00 -1.04687499999996e+00 -4.26187174860564e-08  5.23437499999980e+00 -5.10416666666649e+00 0 0 0
  -9.79166666666673e-01 -1.04687500000001e+00 4.26187174860384e-08  5.23437500000003e+00 -4.89583333333336e+00 0 0 0
  -9.37499999999993e-01 -1.04687499999999e+00 7.39245061142259e-07  5.23437499999995e+00 -4.68749999999996e+00 0 0 0
  -8.95833333333340e-01 -1.04687500000000e+00 7.57560730165415e-07  5.23437500000001e+00 -4.47916666666670e+00 0 0 0
  -8.54166666666679e-01 -1.04687500000002e+00 -3.36823105465314e-06  5.23437500000008e+00 -4.27083333333340e+00 0 0 0
  -8.12499999999988e-01 -1.04687499999999e+00 -1.35412178903066e-05  5.23437499999993e+00 -4.06249999999994e+00 0 0 0
  -7.70833333333348e-01 -1.04687500000002e+00 -2.38101127036489e-05  5.23437500000009e+00 -3.85416666666674e+00 0 0 0
  -7.29166666666668e-01 -1.04687500000000e+00 -1.73242337118103e-05  5.23437500000002e+00 -3.64583333333334e+00 0 0 0
  -6.87499999999982e-01 -1.04687499999997e+00 2.85449556950474e-05  5.23437499999986e+00 -3.43749999999991e+00 0 0 0
  -1.06249999999996e+00 -1.01562499999996e+00 -1.27856152457973e-07  5.07812499999981e+00 -5.31249999999981e+00 0 0 0
  -1.02083333333335e+00 -1.01562500000002e+00 -4.26187174860564e-08  5.07812500000008e+00 -5.10416666666675e+00 0 0 0
  -9.79166666666658e-01 -1.01562499999999e+00 4.26187174860384e-08  5.07812499999995e+00 -4.89583333333329e+00 0 0 0
  -9.37500000000016e-01 -1.01562500000002e+00 7.39245061142259e-07  5.07812500000009e+00 -4.68750000000008e+00 0 0 0
  -8.95833333333323e-01 -1.01562499999999e+00 7.57560730165415e-07  5.07812499999996e+00 -4.47916666666661e+00 0 0 0
  -8.54166666666658e-01 -1.01562499999999e+00 -3.36823105465314e-06  5.07812499999994e+00 -4.27083333333329e+00 0 0 0
  -8.12500000000016e-01 -1.01562500000002e+00 -1.35412178903066e-05  5.07812500000008e+00 -4.06250000000008e+00 0 0 0
  -7.70833333333326e-01 -1.01562499999999e+00 -2.38101127036489e-05  5.07812499999996e+00 -3.85416666666663e+00 0 0 0
  -7.29166666666660e-01 -1.01562499999999e+00 -1.73242337118103e-05  5.07812499999994e+00 -3.64583333333330e+00 0 0 0
  -6.87500000000012e-01 -1.01562500000002e+00 2.85449556950474e-05  5.07812500000010e+00 -3.43750000000006e+00 0 0 0
  -1.06249999999996e+00 -9.84374999999961e-01 -1.27856152457973e-07  4.92187499999980e+00 -5.31249999999981e+00 0 0 0
  -1.02083333333335e+00 -9.84375000000019e-01 -4.26187174860564e-08  4.92187500000009e+00 -5.10416666666676e+00 0 0 0
  -9.79166666666656e-01 -9.84374999999990e-01 4.26187174860384e-08  4.92187499999995e+00 -4.89583333333328e+00 0 0 0
  -9.37500000000016e-01 -9.84375000000020e-01 7.39245061142259e-07  4.92187500000010e+00 -4.68750000000008e+00 0 0 0
  -8.95833333333324e-01 -9.84374999999988e-01 7.57560730165415e-07  4.92187499999994e+00 -4.47916666666662e+00 0 0 0
  -8.54166666666660e-01 -9.84374999999992e-01 -3.36823105465314e-06  4.92187499999996e+00 -4.27083333333330e+00 0 0 0
  -8.12500000000016e-01 -9.84375000000019e-01 -1.35412178903066e-05  4.92187500000009e+00 -4.06250000000008e+00 0 0 0
  -7.70833333333328e-01 -9.84374999999986e-01 -2.38101127036489e-05  4.92187499999993e+00 -3.85416666666664e+00 0 0 0
  -7.29166666666667e-01 -9.84375000000000e-01 -1.73242337118103e-05  4.92187500000000e+00 -3.64583333333333e+00 0 0 0
  -6.87500000000000e-01 -9.84375000000000e-01 2.85449556950474e-05  4.92187500000000e+00 -3.43750000000000e+00 0 0 0
  -1.06250000000004e+00 -9.53125000000031e-01 -5.93231736893463e-07  4.76562500000015e+00 -5.31250000000020e+00 0 0 0
  -1.02083333333332e+00 -9.53124999999991e-01 -1.97743912297610e-07  4.76562499999995e+00 -5.10416666666662e+00 0 0 0
  -9.79166666666683e-01 -9.53125000000019e-01 1.97743912297543e-07  4.76562500000009e+00 -4.89583333333341e+00 0 0 0
  -9.37499999999988e-01 -9.53124999999991e-01 7.99014669615668e-07  4.76562499999995e+00 -4.68749999999994e+00 0 0 0
  -8.95833333333326e-01 -9.53124999999989e-01 -1.34772700135201e-06  4.76562499999994e+00 -4.47916666666663e+00 0 0 0
  -8.54166666666652e-01 -9.53124999999987e-01 -9.74336360168970e-06  4.76562499999994e+00 -4.27083333333326e+00 0 0 0
  -8.12499999999993e-01 -9.53124999999991e-01 -2.07123872994243e-05  4.76562499999995e+00 -4.06249999999996e+00 0 0 0
  -7.70833333333336e-01 -9.53125000000005e-01 -1.70640676647953e-05  4.76562500000002e+00 -3.85416666666668e+00 0 0 0
  -7.29166666666667e-01 -9.53125000000000e-01 2.81740260020386e-05  4.76562500000000e+00 -3.64583333333333e+00 0 0 0
  -6.87500000000000e-01 -9.53125000000000e-01 1.35750872083889e-04  4.76562500000000e+00 -3.43750000000000e+00 0 0 0
  -1.06250000000000e+00 -9.21875000000006e-01 -1.10067336184201e-06  4.60937500000003e+00 -5.31250000000002e+00 0 0 0
  -1.02083333333332e+00 -9.21874999999990e-01 -3.66891120613757e-07  4.60937499999995e+00 -5.10416666666660e+00 0 0 0
  -9.79166666666656e-01 -9.21874999999986e-01 3.66891120614165e-07  4.60937499999993e+00 -4.89583333333328e+00 0 0 0
  -9.37500000000003e-01 -9.21875000000004e-01 3.44328982575828e-07  4.60937500000002e+00 -4.68750000000001e+00 0 0 0
  -8.95833333333336e-01 -9.21875000000001e-01 -4.82066465960845e-06  4.60937500000000e+00 -4.47916666666668e+00 0 0 0
  -8.54166666666698e-01 -9.21875000000031e-01 -1.58971453358279e-05  4.60937500000016e+00 -4.27083333333349e+00 0 0 0
  -8.12499999999992e-01 -9.21874999999992e-01 -1.95521086933000e-05  4.60937499999996e+00 -4.06249999999996e+00 0 0 0
  -7.70833333333348e-01 -9.21875000000015e-01 1.30202071775584e-05  4.60937500000008e+00 -3.85416666666674e+00 0 0 0
  -7.29166666666667e-01 -9.21875000000000e-01 1.10160680110826e-04  4.60937500000000e+00 -3.64583333333333e+00 0 0 0
  -6.87500000000000e-01 -9.21875000000000e-01 2.71948376314331e-04  4.60937500000000e+00 -3.43750000000000e+00 0 0 0
  -1.06249999999999e+00 -8.90624999999989e-01 -1.50392544485935e-06  4.45312499999994e+00 -5.31249999999993e+00 0 0 0
  -1.02083333333335e+00 -8.90625000000012e-01 -5.01308481620196e-07  4.45312500000006e+00 -5.10416666666673e+00 0 0 0
  -9.79166666666684e-01 -8.90625000000017e-01 5.01308481619472e-07  4.45312500000008e+00 -4.89583333333342e+00 0 0 0
  -9.37499999999964e-01 -8.90624999999968e-01 -1.11621523729760e-06  4.45312499999984e+00 -4.68749999999982e+00 0 0 0
  -8.95833333333351e-01 -8.90625000000017e-01 -9.85549195536876e-06  4.45312500000008e+00 -4.47916666666676e+00 0 0 0
  -8.54166666666658e-01 -8.90624999999991e-01 -1.90933957249355e-05  4.45312499999995e+00 -4.27083333333329e+00 0 0 0
  -8.12499999999994e-01 -8.90624999999996e-01 -1.85473137335980e-06  4.45312499999998e+00 -4.06249999999997e+00 0 0 0
  -7.70833333333326e-01 -8.90624999999992e-01 7.78555807256349e-05  4.45312499999996e+00 -3.85416666666663e+00 0 0 0
  -7.29166666666667e-01 -8.90625000000000e-01 2.32064982531456e-04  4.45312500000000e+00 -3.64583333333333e+00 0 0 0
  -6.87500000000000e-01 -8.90625000000000e-01 4.12705245450947e-04  4.45312500000000e+00 -3.43750000000000e+00 0 0 0
  -1.06250000000000e+00 -8.59375000000002e-01 -1.37984868774002e-06  4.29687500000001e+00 -5.31250000000001e+00 0 0 0
  -1.02083333333334e+00 -8.59375000000003e-01 -4.59949562580045e-07  4.29687500000002e+00 -5.10416666666668e+00 0 0 0
  -9.79166666666654e-01 -8.59374999999989e-01 4.59949562580263e-07  4.29687499999994e+00 -4.89583333333327e+00 0 0 0
  -9.37500000000014e-01 -8.59375000000014e-01 -3.83854606974092e-06  4.29687500000007e+00 -4.68750000000007e+00 0 0 0
  -8.95833333333326e-01 -8.59374999999992e-01 -1.47672460013614e-05  4.29687499999996e+00 -4.47916666666663e+00 0 0 0
  -8.54166666666683e-01 -8.59375000000015e-01 -1.27656931185656e-05  4.29687500000008e+00 -4.27083333333341e+00 0 0 0
  -8.12500000000004e-01 -8.59375000000004e-01 4.23893591229900e-05  4.29687500000002e+00 -4.06250000000002e+00 0 0 0
  -7.70833333333348e-01 -8.59375000000015e-01 1.78981984879744e-04  4.29687500000008e+00 -3.85416666666674e+00 0 0 0
  -7.29166666666667e-01 -8.59375000000000e-01 3.63675491649136e-04  4.29687500000000e+00 -3.64583333333334e+00 0 0 0
  -6.87500000000000e-01 -8.59375000000000e-01 4.68994980144321e-04  4.29687500000000e+00 -3.43750000000000e+00 0 0 0
  -1.06249999999999e+00 -8.28124999999992e-01 -9.00537601317086e-08  4.14062499999996e+00 -5.31249999999995e+00 0 0 0
  -1.02083333333332e+00 -8.28124999999989e-01 -3.00179200438925e-08  4.14062499999994e+00 -5.10416666666661e+00 0 0 0
  -9.79166666666656e-01 -8.28124999999991e-01 3.00179200439234e-08  4.14062499999995e+00 -4.89583333333328e+00 0 0 0
  -9.37500000000016e-01 -8.28125000000016e-01 -7.66008315844197e-06  4.14062500000008e+00 -4.68750000000008e+00 0 0 0
  -8.95833333333324e-01 -8.28124999999990e-01 -1.61287697255770e-05  4.14062499999995e+00 -4.47916666666662e+00 0 0 0
  -8.54166666666671e-01 -8.28125000000004e-01 1.12076300351679e-05  4.14062500000002e+00 -4.27083333333336e+00 0 0 0
  -8.12499999999995e-01 -8.28124999999993e-01 1.18691902559121e-04  4.14062499999997e+00 -4.06249999999997e+00 0 0 0
  -7.70833333333336e-01 -8.28125000000006e-01 2.99246215145649e-04  4.14062500000003e+00 -3.85416666666668e+00 0 0 0
  -7.29166666666667e-01 -8.28125000000000e-01 4.37893777134434e-04  4.14062500000000e+00 -3.64583333333334e+00 0 0 0
  -6.87500000000000e-01 -8.28125000000000e-01 3.03952059866135e-04  4.14062500000000e+00 -3.43750000000000e+00 0 0 0
  -1.06249999999998e+00 -7.96874999999988e-01 3.03514379204455e-06  3.98437499999994e+00 -5.31249999999992e+00 0 0 0
  -1.02083333333335e+00 -7.96875000000015e-01 1.01171459734930e-06  3.98437500000008e+00 -5.10416666666675e+00 0 0 0
  -9.79166666666671e-01 -7.96875000000004e-01 -1.01171459734823e-06  3.98437500000002e+00 -4.89583333333336e+00 0 0 0
  -9.37499999999993e-01 -7.96874999999992e-01 -1.15235537992970e-05  3.98437499999996e+00 -4.68749999999996e+00 0 0 0
  -8.95833333333338e-01 -7.96875000000004e-01 -8.58790605115750e-06  3.98437500000002e+00 -4.47916666666669e+00 0 0 0
  -8.54166666666670e-01 -7.96875000000002e-01 5.99901104310176e-05  3.98437500000001e+00 -4.27083333333335e+00 0 0 0
  -8.12499999999983e-01 -7.96874999999982e-01 2.20622382369801e-04  3.98437499999991e+00 -4.06249999999992e+00 0 0 0
  -7.70833333333328e-01 -7.96874999999992e-01 3.91958407577888e-04  3.98437499999996e+00 -3.85416666666664e+00 0 0 0
  -7.29166666666667e-01 -7.96875000000000e-01 3.43963555357545e-04  3.98437500000000e+00 -3.64583333333334e+00 0 0 0
  -6.87500000000000e-01 -7.96875000000000e-01 -2.57833869538039e-04  3.98437500000000e+00 -3.43750000000000e+00 0 0 0
  -1.06250000000002e+00 -7.65625000000013e-01 8.37671250790173e-06  3.82812500000007e+00 -5.31250000000010e+00 0 0 0
  -1.02083333333332e+00 -7.65624999999992e-01 2.79223750263160e-06  3.82812499999996e+00 -5.10416666666661e+00 0 0 0
  -9.79166666666655e-01 -7.65624999999992e-01 -2.79223750263459e-06  3.82812499999996e+00 -4.89583333333328e+00 0 0 0
  -9.37500000000016e-01 -7.65625000000013e-01 -1.31402532997036e-05  3.82812500000007e+00 -4.68750000000008e+00 0 0 0
  -8.95833333333325e-01 -7.65624999999992e-01 1.41855667770973e-05  3.82812499999996e+00 -4.47916666666663e+00 0 0 0
  -8.54166666666667e-01 -7.65625000000002e-01 1.35085092475616e-04  3.82812500000001e+00 -4.27083333333333e+00 0 0 0
  -8.12500000000015e-01 -7.65625000000013e-01 3.21499569818212e-04  3.82812500000007e+00 -4.06250000000008e+00 0 0 0
  -7.70833333333340e-01 -7.65625000000007e-01 3.75172169148911e-04  3.82812500000004e+00 -3.85416666666670e+00 0 0 0
  -7.29166666666667e-01 -7.65625000000000e-01 -6.39454830181100e-05  3.82812500000000e+00 -3.64583333333334e+00 0 0 0
  -6.87500000000001e-01 -7.65625000000000e-01 -1.39497254512322e-03  3.82812500000000e+00 -3.43750000000000e+00 0 0 0
  -1.06250000000002e+00 -7.34375000000015e-01 1.55171411196751e-05  3.67187500000008e+00 -5.31250000000011e+00 0 0 0
  -1.02083333333332e+00 -7.34374999999992e-01 5.17238037322106e-06  3.67187499999996e+00 -5.10416666666662e+00 0 0 0
  -9.79166666666667e-01 -7.34375000000000e-01 -5.17238037322326e-06  3.67187500000000e+00 -4.89583333333333e+00 0 0 0
  -9.37500000000000e-01 -7.34375000000000e-01 -8.92661393864024e-06  3.67187500000000e+00 -4.68750000000000e+00 0 0 0
  -8.95833333333334e-01 -7.34375000000000e-01 5.72982425608461e-05  3.67187500000000e+00 -4.47916666666667e+00 0 0 0
  -8.54166666666667e-01 -7.34375000000000e-01 2.26303265130800e-04  3.67187500000000e+00 -4.27083333333333e+00 0 0 0
  -8.12500000000001e-01 -7.34375000000000e-01 3.67973050549687e-04  3.67187500000000e+00 -4.06250000000000e+00 0 0 0
  -7.70833333333334e-01 -7.34375000000000e-01 1.34703804567665e-04  3.67187500000000e+00 -3.85416666666667e+00 0 0 0
  -7.29166666666660e-01 -7.34374999999993e-01 -9.42199495262604e-04  3.67187499999997e+00 -3.64583333333330e+00 0 0 0
  -6.87499999999991e-01 -7.34374999999987e-01 -3.23567201268202e-03  3.67187499999994e+00 -3.43749999999995e+00 0 0 0
  -1.06249999999997e+00 -7.03124999999984e-01 2.26553045567715e-05  3.51562499999992e+00 -5.31249999999986e+00 0 0 0
  -1.02083333333335e+00 -7.03125000000012e-01 7.55176818560088e-06  3.51562500000006e+00 -5.10416666666676e+00 0 0 0
  -9.79166666666667e-01 -7.03125000000000e-01 -7.55176818559376e-06  3.51562500000000e+00 -4.89583333333333e+00 0 0 0
  -9.37500000000000e-01 -7.03125000000000e-01 5.50728482913822e-06  3.51562500000000e+00 -4.68750000000000e+00 0 0 0
  -8.95833333333334e-01 -7.03125000000000e-01 1.21147689540532e-04  3.51562500000000e+00 -4.47916666666667e+00 0 0 0
  -8.54166666666667e-01 -7.03125000000000e-01 3.05876888882686e-04  3.51562500000000e+00 -4.27083333333334e+00 0 0 0
  -8.12500000000001e-01 -7.03125000000000e-01 2.78929223325082e-04  3.51562500000000e+00 -4.06250000000000e+00 0 0 0
  -7.70833333333334e-01 -7.03125000000000e-01 -4.60707761704104e-04  3.51562500000000e+00 -3.85416666666667e+00 0 0 0
  -7.29166666666664e-01 -7.03124999999998e-01 -2.41782519159882e-03  3.51562499999999e+00 -3.64583333333332e+00 0 0 0
  -6.87500000000012e-01 -7.03125000000012e-01 -5.79415138468341e-03  3.51562500000006e+00 -3.43750000000006e+00 0 0 0
ZONE T =  "Block Number = 1" \ 
I = 10 \ 
J = 12 \ 
F = POINT 
  -6.24999999999999e-02 -1.04687500000000e+00 -6.57379060527877e-03  5.23437500000000e+00 -3.12500000000000e-01 0 0 0
  -2.08333333333333e-02 -1.04687500000000e+00 -8.13915004584708e-03  5.23437499999999e+00 -1.04166666666667e-01 0 0 0
  2.08333333333333e-02 -1.04687500000000e+00 2.43191427986227e-02  5.23437500000001e+00 1.04166666666667e-01 0 0 0
  6.24999999999999e-02 -1.04687500000000e+00 1.78195822943261e-02  5.23437500000001e+00 3.12500000000000e-01 0 0 0
  1.04166666666666e-01 -1.04687500000000e+00 1.43124414345901e-02  5.23437500000000e+00 5.20833333333332e-01 0 0 0
  1.45833333333334e-01 -1.04687500000000e+00 1.04037519001911e-02  5.23437500000002e+00 7.29166666666670e-01 0 0 0
  1.87499999999998e-01 -1.04687499999999e+00 6.75008560169236e-03  5.23437499999995e+00 9.37499999999991e-01 0 0 0
  2.29166666666668e-01 -1.04687500000001e+00 3.74769756199815e-03  5.23437500000003e+00 1.14583333333334e+00 0 0 0
  2.70833333333335e-01 -1.04687500000000e+00 1.59217749746985e-03  5.23437500000001e+00 1.35416666666667e+00 0 0 0
  3.12499999999999e-01 -1.04687500000000e+00 2.74955951586940e-04  5.23437499999998e+00 1.56250000000000e+00 0 0 0
  -6.24999999999999e-02 -1.01562500000000e+00 -6.57379060527877e-03  5.07812500000000e+00 -3.12499999999999e-01 0 0 0
  -2.08333333333333e-02 -1.01562500000000e+00 -8.13915004584708e-03  5.07812500000001e+00 -1.04166666666667e-01 0 0 0
  2.08333333333333e-02 -1.01562500000000e+00 8.10638093287388e-03  5.07812500000000e+00 1.04166666666667e-01 0 0 0
  6.25000000000001e-02 -1.01562500000000e+00 5.93986076477398e-03  5.07812499999999e+00 3.12500000000000e-01 0 0 0
  1.04166666666667e-01 -1.01562500000000e+00 4.77081381153005e-03  5.07812500000000e+00 5.20833333333334e-01 0 0 0
  1.45833333333333e-01 -1.01562500000000e+00 3.46791730006299e-03  5.07812499999999e+00 7.29166666666667e-01 0 0 0
  1.87500000000001e-01 -1.01562500000000e+00 2.25002853389849e-03  5.07812500000002e+00 9.37500000000004e-01 0 0 0
  2.29166666666666e-01 -1.01562500000000e+00 1.24923252066575e-03  5.07812499999999e+00 1.14583333333333e+00 0 0 0
  2.70833333333334e-01 -1.01562500000001e+00 5.30725832490110e-04  5.07812500000003e+00 1.35416666666667e+00 0 0 0
  3.12499999999998e-01 -1.01562500000000e+00 9.16519838622999e-05  5.07812499999998e+00 1.56249999999999e+00 0 0 0
  -6.24999999999999e-02 -9.84375000000000e-01 -6.57379060527877e-03  4.92187500000000e+00 -3.12500000000000e-01 0 0 0
  -2.08333333333333e-02 -9.84375000000000e-01 -8.13915004584708e-03  4.92187500000000e+00 -1.04166666666667e-01 0 0 0
  2.08333333333333e-02 -9.84374999999998e-01 -8.10638093287480e-03  4.92187499999999e+00 1.04166666666667e-01 0 0 0
  6.25000000000002e-02 -9.84375000000001e-01 -5.93986076477462e-03  4.92187500000001e+00 3.12500000000001e-01 0 0 0
  1.04166666666666e-01 -9.84374999999998e-01 -4.77081381153056e-03  4.92187499999999e+00 5.20833333333332e-01 0 0 0
  1.45833333333333e-01 -9.84374999999998e-01 -3.46791730006378e-03  4.92187499999999e+00 7.29166666666666e-01 0 0 0
  1.87500000000001e-01 -9.84375000000005e-01 -2.25002853389721e-03  4.92187500000003e+00 9.37500000000004e-01 0 0 0
  2.29166666666666e-01 -9.84374999999997e-01 -1.24923252066617e-03  4.92187499999998e+00 1.14583333333333e+00 0 0 0
  2.70833333333333e-01 -9.84375000000000e-01 -5.30725832489922e-04  4.92187500000000e+00 1.35416666666667e+00 0 0 0
  3.12500000000000e-01 -9.84375000000000e-01 -9.16519838623201e-05  4.92187500000000e+00 1.56250000000000e+00 0 0 0
  -6.25000000000000e-02 -9.53125000000000e-01 -1.24281303090852e-02  4.76562500000000e+00 -3.12500000000000e-01 0 0 0
  -2.08333333333333e-02 -9.53125000000000e-01 -1.26937277622387e-02  4.76562500000000e+00 -1.04166666666667e-01 0 0 0
  2.08333333333333e-02 -9.53125000000002e-01 -1.29702338469091e-02  4.76562500000001e+00 1.04166666666667e-01 0 0 0
  6.24999999999999e-02 -9.53125000000001e-01 -1.27636925142507e-02  4.76562500000000e+00 3.12500000000000e-01 0 0 0
  1.04166666666667e-01 -9.53125000000000e-01 -1.19434054759438e-02  4.76562500000000e+00 5.20833333333333e-01 0 0 0
  1.45833333333333e-01 -9.53125000000002e-01 -1.06926802400093e-02  4.76562500000001e+00 7.29166666666667e-01 0 0 0
  1.87500000000000e-01 -9.53124999999997e-01 -8.97156871601782e-03  4.76562499999998e+00 9.37499999999998e-01 0 0 0
  2.29166666666667e-01 -9.53125000000003e-01 -6.94973603673164e-03  4.76562500000001e+00 1.14583333333334e+00 0 0 0
  2.70833333333333e-01 -9.53125000000000e-01 -4.87785030364321e-03  4.76562500000000e+00 1.35416666666667e+00 0 0 0
  3.12500000000000e-01 -9.53125000000000e-01 -3.01156013381978e-03  4.76562500000000e+00 1.56250000000000e+00 0 0 0
  -6.25000000000000e-02 -9.21875000000000e-01 -1.73751089454268e-02  4.60937500000000e+00 -3.12500000000000e-01 0 0 0
  -2.08333333333333e-02 -9.21875000000000e-01 -1.75843992612903e-02  4.60937500000000e+00 -1.04166666666667e-01 0 0 0
  2.08333333333333e-02 -9.21875000000001e-01 -1.75452973767493e-02  4.60937500000000e+00 1.04166666666667e-01 0 0 0
  6.24999999999999e-02 -9.21875000000000e-01 -1.73487451899753e-02  4.60937500000000e+00 3.12499999999999e-01 0 0 0
  1.04166666666667e-01 -9.21875000000002e-01 -1.69165108268097e-02  4.60937500000001e+00 5.20833333333333e-01 0 0 0
  1.45833333333333e-01 -9.21874999999998e-01 -1.61464110944333e-02  4.60937499999999e+00 7.29166666666666e-01 0 0 0
  1.87500000000000e-01 -9.21875000000004e-01 -1.49238261332729e-02  4.60937500000002e+00 9.37500000000002e-01 0 0 0
  2.29166666666666e-01 -9.21874999999999e-01 -1.31552651026237e-02  4.60937499999999e+00 1.14583333333333e+00 0 0 0
  2.70833333333333e-01 -9.21875000000000e-01 -1.08787834607223e-02  4.60937500000000e+00 1.35416666666667e+00 0 0 0
  3.12500000000000e-01 -9.21875000000000e-01 -8.28658346405016e-03  4.60937500000000e+00 1.56250000000000e+00 0 0 0
  -6.25000000000000e-02 -8.90625000000000e-01 -1.95782000854598e-02  4.45312500000000e+00 -3.12500000000000e-01 0 0 0
  -2.08333333333333e-02 -8.90625000000000e-01 -1.95377424690135e-02  4.45312500000000e+00 -1.04166666666667e-01 0 0 0
  2.08333333333334e-02 -8.90624999999998e-01 -1.94877947780409e-02  4.45312499999999e+00 1.04166666666667e-01 0 0 0
  6.25000000000001e-02 -8.90624999999999e-01 -1.94490243669737e-02  4.45312499999999e+00 3.12500000000001e-01 0 0 0
  1.04166666666667e-01 -8.90625000000001e-01 -1.93898809339304e-02  4.45312500000001e+00 5.20833333333334e-01 0 0 0
  1.45833333333333e-01 -8.90624999999998e-01 -1.92111259423037e-02  4.45312499999999e+00 7.29166666666666e-01 0 0 0
  1.87499999999999e-01 -8.90624999999995e-01 -1.87581763495446e-02  4.45312499999998e+00 9.37499999999997e-01 0 0 0
  2.29166666666668e-01 -8.90625000000002e-01 -1.78372759732490e-02  4.45312500000001e+00 1.14583333333334e+00 0 0 0
  2.70833333333333e-01 -8.90625000000000e-01 -1.62762400595508e-02  4.45312500000000e+00 1.35416666666667e+00 0 0 0
  3.12500000000000e-01 -8.90625000000000e-01 -1.40191559747848e-02  4.45312500000000e+00 1.56250000000000e+00 0 0 0
  -6.25000000000000e-02 -8.59375000000000e-01 -1.52091851420463e-02  4.29687500000000e+00 -3.12500000000000e-01 0 0 0
  -2.08333333333333e-02 -8.59375000000000e-01 -1.45794156661291e-02  4.29687500000000e+00 -1.04166666666667e-01 0 0 0
  2.08333333333333e-02 -8.59375000000001e-01 -1.45327455134311e-02  4.29687500000001e+00 1.04166666666667e-01 0 0 0
  6.25000000000000e-02 -8.59375000000001e-01 -1.50636984126667e-02  4.29687500000001e+00 3.12500000000000e-01 0 0 0
  1.04166666666667e-01 -8.59374999999999e-01 -1.60365366135674e-02  4.29687499999999e+00 5.20833333333334e-01 0 0 0
  1.45833333333333e-01 -8.59375000000001e-01 -1.72205025388852e-02  4.29687500000001e+00 7.29166666666667e-01 0 0 0
  1.87500000000000e-01 -8.59375000000001e-01 -1.83295862095274e-02  4.29687500000001e+00 9.37500000000002e-01 0 0 0
  2.29166666666667e-01 -8.59375000000002e-01 -1.90547280329825e-02  4.29687500000001e+00 1.14583333333333e+00 0 0 0
  2.70833333333333e-01 -8.59375000000000e-01 -1.90935473116012e-02  4.29687500000000e+00 1.35416666666667e+00 0 0 0
  3.12500000000000e-01 -8.59375000000000e-01 -1.82045564401445e-02  4.29687500000000e+00 1.56250000000000e+00 0 0 0
  -6.25000000000000e-02 -8.28125000000000e-01 5.55956352700914e-04  4.14062500000000e+00 -3.12500000000000e-01 0 0 0
  -2.08333333333333e-02 -8.28125000000000e-01 2.16301354185707e-03  4.14062500000000e+00 -1.04166666666667e-01 0 0 0
  2.08333333333333e-02 -8.28125000000002e-01 2.21084448540627e-03  4.14062500000001e+00 1.04166666666667e-01 0 0 0
  6.24999999999999e-02 -8.28124999999999e-01 7.12172315754855e-04  4.14062499999999e+00 3.12499999999999e-01 0 0 0
  1.04166666666666e-01 -8.28125000000000e-01 -2.09806661845314e-03  4.14062500000000e+00 5.20833333333332e-01 0 0 0
  1.45833333333333e-01 -8.28125000000001e-01 -5.79623814044055e-03  4.14062500000001e+00 7.29166666666667e-01 0 0 0
  1.87500000000000e-01 -8.28124999999999e-01 -9.84111897969133e-03  4.14062500000000e+00 9.37499999999999e-01 0 0 0
  2.29166666666667e-01 -8.28125000000002e-01 -1.36588413602174e-02  4.14062500000001e+00 1.14583333333333e+00 0 0 0
  2.70833333333333e-01 -8.28125000000000e-01 -1.67151516932533e-02  4.14062500000000e+00 1.35416666666667e+00 0 0 0
  3.12500000000000e-01 -8.28125000000000e-01 -1.85689393651166e-02  4.14062500000000e+00 1.56250000000000e+00 0 0 0
  -6.25000000000000e-02 -7.96875000000000e-01 3.29396819513247e-02  3.98437500000000e+00 -3.12500000000000e-01 0 0 1.2594169153565e-05
  -2.08333333333333e-02 -7.96875000000000e-01 3.59493177181580e-02  3.98437500000000e+00 -1.04166666666667e-01 0 0 0.00022309088609657
  2.08333333333333e-02 -7.96874999999999e-01 3.59850521558852e-02  3.98437500000000e+00 1.04166666666667e-01 0 0 0.00022309088609663
  6.25000000000000e-02 -7.96875000000000e-01 3.30754762020245e-02  3.98437500000000e+00 3.12500000000000e-01 0 0 1.2594169153565e-05
  1.04166666666667e-01 -7.96874999999999e-01 2.75602878535060e-02  3.98437499999999e+00 5.20833333333334e-01 0 0 0
  1.45833333333333e-01 -7.96874999999997e-01 2.00661855225468e-02  3.98437499999999e+00 7.29166666666664e-01 0 0 0
  1.87500000000000e-01 -7.96875000000001e-01 1.14345197692813e-02  3.98437500000000e+00 9.37500000000000e-01 0 0 0
  2.29166666666666e-01 -7.96874999999999e-01 2.61028023194097e-03  3.98437499999999e+00 1.14583333333333e+00 0 0 0
  2.70833333333333e-01 -7.96875000000000e-01 -5.48550571324603e-03  3.98437500000000e+00 1.35416666666667e+00 0 0 0
  3.12500000000000e-01 -7.96875000000000e-01 -1.20677415589713e-02  3.98437500000000e+00 1.56250000000000e+00 0 0 0
  -6.25000000000000e-02 -7.65625000000000e-01 8.65661677317720e-02  3.82812500000000e+00 -3.12500000000000e-01 0 0 0.027516776033078
  -2.08333333333333e-02 -7.65625000000000e-01 9.13687617924940e-02  3.82812500000000e+00 -1.04166666666667e-01 0 0 0.031526412228452
  2.08333333333334e-02 -7.65625000000000e-01 9.13762860254772e-02  3.82812500000000e+00 1.04166666666667e-01 0 0 0.031526412228453
  6.24999999999999e-02 -7.65625000000001e-01 8.66347721586791e-02  3.82812500000000e+00 3.12500000000000e-01 0 0 0.027516776033076
  1.04166666666667e-01 -7.65625000000001e-01 7.75868097300173e-02  3.82812500000000e+00 5.20833333333333e-01 0 0 0.020325263908213
  1.45833333333333e-01 -7.65624999999998e-01 6.50558340610056e-02  3.82812499999999e+00 7.29166666666667e-01 0 0 0.011600068373928
  1.87500000000001e-01 -7.65625000000003e-01 5.01812596510900e-02  3.82812500000001e+00 9.37500000000004e-01 0 0 0.0037803587349613
  2.29166666666667e-01 -7.65625000000000e-01 3.43087816975583e-02  3.82812500000000e+00 1.14583333333333e+00 0 0 1.8144702107834e-05
  2.70833333333333e-01 -7.65625000000000e-01 1.88387297205725e-02  3.82812500000000e+00 1.35416666666667e+00 0 0 0
  3.12500000000000e-01 -7.65625000000000e-01 5.05507180651870e-03  3.82812500000000e+00 1.56250000000000e+00 0 0 0
  -6.24999999999999e-02 -7.34375000000000e-01 1.64290510542820e-01  3.67187500000000e+00 -3.12500000000000e-01 0 0 0.10482695684633
  -2.08333333333333e-02 -7.34374999999999e-01 1.71144176083092e-01  3.67187499999999e+00 -1.04166666666667e-01 0 0 0.11251523960532
  2.08333333333333e-02 -7.34375000000000e-01 1.71108283966349e-01  3.67187500000000e+00 1.04166666666667e-01 0 0 0.11251523960532
  6.25000000000000e-02 -7.34375000000000e-01 1.64241715648731e-01  3.67187500000000e+00 3.12500000000000e-01 0 0 0.10482695684633
  1.04166666666667e-01 -7.34375000000000e-01 1.51059939547225e-01  3.67187500000000e+00 5.20833333333333e-01 0 0 0.090246115562844
  1.45833333333333e-01 -7.34375000000000e-01 1.32536393565750e-01  3.67187500000000e+00 7.29166666666667e-01 0 0 0.070390789884399
  1.87500000000000e-01 -7.34375000000000e-01 1.10057702184135e-01  3.67187500000000e+00 9.37500000000000e-01 0 0 0.047735278466011
  2.29166666666667e-01 -7.34375000000000e-01 8.53338887575116e-02  3.67187500000000e+00 1.14583333333333e+00 0 0 0.025615488675246
  2.70833333333334e-01 -7.34375000000002e-01 6.02534179546733e-02  3.67187500000001e+00 1.35416666666667e+00 0 0 0.0081598762012007
  3.12499999999999e-01 -7.34374999999997e-01 3.66845848469304e-02  3.67187499999999e+00 1.56250000000000e+00 0 0 9.9013888616967e-05
  -6.25000000000000e-02 -7.03125000000002e-01 2.66054079348855e-01  3.51562500000001e+00 -3.12500000000000e-01 0 0 0.22375222297024
  -2.08333333333333e-02 -7.03125000000000e-01 2.74982517116689e-01  3.51562500000000e+00 -1.04166666666667e-01 0 0 0.23459540717743
  2.08333333333333e-02 -7.03125000000000e-01 2.74892608267473e-01  3.51562500000000e+00 1.04166666666667e-01 0 0 0.23459540717743
  6.25000000000000e-02 -7.03125000000000e-01 2.65846608513081e-01  3.51562500000000e+00 3.12500000000000e-01 0 0 0.22375222297025
  1.04166666666667e-01 -7.03125000000000e-01 2.48370630441163e-01  3.51562500000000e+00 5.20833333333333e-01 0 0 0.20273241861039
  1.45833333333333e-01 -7.03125000000000e-01 2.23483987502714e-01  3.51562500000000e+00 7.29166666666667e-01 0 0 0.172936209915
  1.87500000000000e-01 -7.03125000000000e-01 1.92697622999089e-01  3.51562500000000e+00 9.37500000000000e-01 0 0 0.1366082714819
  2.29166666666667e-01 -7.03125000000000e-01 1.57970610260468e-01  3.51562500000000e+00 1.14583333333333e+00 0 0 0.096948110583984
  2.70833333333334e-01 -7.03125000000002e-01 1.21601020943291e-01  3.51562500000001e+00 1.35416666666667e+00 0 0 0.058160748091844
  3.12500000000001e-01 -7.03125000000002e-01 8.60343270270707e-02  3.51562500000001e+00 1.56250000000000e+00 0 0 0.025382678286117
ZONE T =  "Block Number = 2" \ 
I = 10 \ 
J = 12 \ 
F = POINT 
  -1.06250000000000e+00 -4.68750000000000e-02 1.20391347092060e-02  2.34375000000000e-01 -5.31249999999999e+00 0 0 0
  -1.02083333333333e+00 -4.68750000000000e-02 4.01304490306891e-03  2.34375000000000e-01 -5.10416666666667e+00 0 0 0
  -9.79166666666667e-01 -4.68750000000000e-02 -4.01304490306874e-03  2.34375000000000e-01 -4.89583333333333e+00 0 0 0
  -9.37500000000000e-01 -4.68750000000000e-02 -1.13588066006620e-02  2.34375000000000e-01 -4.68750000000000e+00 0 0 0
  -8.95833333333333e-01 -4.68750000000000e-02 -1.73604780660721e-02  2.34375000000000e-01 -4.47916666666667e+00 0 0 0
  -8.54166666666667e-01 -4.68750000000000e-02 -1.51540612975796e-02  2.34375000000000e-01 -4.27083333333333e+00 0 0 0
  -8.12500000000000e-01 -4.68750000000000e-02 8.02958753157405e-03  2.34375000000000e-01 -4.06250000000000e+00 0 0 0
  -7.70833333333334e-01 -4.68750000000000e-02 6.67157719817430e-02  2.34375000000000e-01 -3.85416666666667e+00 0 0 0.020952642651784
  -7.29166666666667e-01 -4.68750000000001e-02 1.71597950544885e-01  2.34375000000000e-01 -3.64583333333334e+00 0 0 0.1260830767254