TITLE = "CFFC: 2D Advection Diffusion Equation Solution, Time Step/Iteration Level = 1000, Time = 5.5918425700107"
VARIABLES = "x" \ 
"y" \ 
"u" \ 
"Vx" \ 
"Vy" \ 
"k" \ 
"s" \ 
"ExactSoln" \ 
ZONE T =  "Block Number = 0" \ 
I = 7 \ 
J = 9 \ 
F = POINT 
  -1.00000000000000e+00 -1.00000000000000e+00 -2.06434412824031e-09  5.00000000000000e+00 -5.00000000000000e+00 0 0 0
  -9.58333333333333e-01 -1.00000000000000e+00 3.83510443891670e-07  5.00000000000000e+00 -4.79166666666667e+00 0 0 0
  -9.16666666666667e-01 -1.00000000000000e+00 7.48624036544031e-07  5.00000000000000e+00 -4.58333333333333e+00 0 0 0
  -8.75000000000000e-01 -1.00000000000000e+00 -1.30533516224386e-06  5.00000000000000e+00 -4.37500000000000e+00 0 0 0
  -8.33333333333333e-01 -1.00000000000000e+00 -8.58547606739379e-06  5.00000000000000e+00 -4.16666666666667e+00 0 0 0
  -7.91666666666667e-01 -1.00000000000000e+00 -1.88035250712648e-05  5.00000000000000e+00 -3.95833333333333e+00 0 0 0
  -7.50000000000000e-01 -1.00000000000000e+00 -2.05671732077296e-05  5.00000000000000e+00 -3.75000000000000e+00 0 0 0
  -1.00000000000000e+00 -9.68750000000000e-01 -2.10964143425524e-20  4.84375000000000e+00 -5.00000000000000e+00 0 0 0
  -9.58333333333333e-01 -9.68750000000000e-01 4.44655590135429e-07  4.84375000000000e+00 -4.79166666666667e+00 0 0 0
  -9.16666666666667e-01 -9.68750000000000e-01 -1.16706524633929e-07  4.84375000000000e+00 -4.58333333333333e+00 0 0 0
  -8.75000000000000e-01 -9.68750000000000e-01 -3.42544023188108e-06  4.84375000000000e+00 -4.37500000000000e+00 0 0 0
  -8.33333333333333e-01 -9.68750000000000e-01 -1.39239029012883e-05  4.84375000000000e+00 -4.16666666666667e+00 0 0 0
  -7.91666666666667e-01 -9.68750000000000e-01 -1.87819463895437e-05  4.84375000000000e+00 -3.95833333333333e+00 0 0 0
  -7.50000000000000e-01 -9.68750000000000e-01 -7.50609701955472e-06  4.84375000000000e+00 -3.75000000000000e+00 0 0 0
  -1.00000000000000e+00 -9.37500000000000e-01 1.99226338317196e-07  4.68750000000000e+00 -5.00000000000000e+00 0 0 0
  -9.58333333333334e-01 -9.37500000000000e-01 4.26994671275838e-07  4.68750000000000e+00 -4.79166666666667e+00 0 0 0
  -9.16666666666667e-01 -9.37500000000000e-01 -1.25626200219204e-06  4.68750000000000e+00 -4.58333333333333e+00 0 0 0
  -8.75000000000000e-01 -9.37500000000000e-01 -3.45865962425974e-06  4.68750000000000e+00 -4.37500000000000e+00 0 0 0
  -8.33333333333334e-01 -9.37500000000000e-01 -1.29674475900023e-05  4.68750000000000e+00 -4.16666666666667e+00 0 0 0
  -7.91666666666667e-01 -9.37500000000000e-01 -1.35083189070641e-05  4.68750000000000e+00 -3.95833333333334e+00 0 0 0
  -7.50000000000000e-01 -9.37500000000000e-01 3.35727114064197e-05  4.68750000000000e+00 -3.75000000000000e+00 0 0 0
  -1.00000000000000e+00 -9.06250000000000e-01 -7.88799432130567e-20  4.53125000000000e+00 -5.00000000000000e+00 0 0 0
  -9.58333333333334e-01 -9.06250000000000e-01 2.40783368779674e-08  4.53125000000000e+00 -4.79166666666667e+00 0 0 0
  -9.16666666666667e-01 -9.06250000000000e-01 -7.87437453786460e-07  4.53125000000000e+00 -4.58333333333334e+00 0 0 0
  -8.75000000000001e-01 -9.06250000000000e-01 -1.24166744189378e-05  4.53125000000000e+00 -4.37500000000000e+00 0 0 0
  -8.33333333333334e-01 -9.06250000000000e-01 -1.10197340383398e-05  4.53125000000000e+00 -4.16666666666667e+00 0 0 0
  -7.91666666666667e-01 -9.06250000000000e-01 1.73672369591374e-05  4.53125000000000e+00 -3.95833333333334e+00 0 0 0
  -7.50000000000000e-01 -9.06250000000000e-01 1.08275362636362e-04  4.53125000000000e+00 -3.75000000000000e+00 0 0 0
  -1.00000000000000e+00 -8.75000000000000e-01 -1.26495767994059e-19  4.37500000000000e+00 -5.00000000000000e+00 0 0 0
  -9.58333333333334e-01 -8.75000000000000e-01 -9.98375815709695e-07  4.37500000000000e+00 -4.79166666666667e+00 0 0 0
  -9.16666666666667e-01 -8.75000000000000e-01 -7.39437481594218e-06  4.37500000000000e+00 -4.58333333333334e+00 0 0 0
  -8.75000000000001e-01 -8.75000000000000e-01 -1.41204567000580e-05  4.37500000000000e+00 -4.37500000000000e+00 0 0 0
  -8.33333333333334e-01 -8.75000000000000e-01 2.16888472653570e-06  4.37500000000000e+00 -4.16666666666667e+00 0 0 0
  -7.91666666666667e-01 -8.75000000000000e-01 7.43430483387517e-05  4.37500000000000e+00 -3.95833333333334e+00 0 0 0
  -7.50000000000000e-01 -8.75000000000000e-01 2.13144509946515e-04  4.37500000000000e+00 -3.75000000000000e+00 0 0 0
  -1.00000000000000e+00 -8.43750000000000e-01 6.23098611823945e-20  4.21875000000000e+00 -5.00000000000000e+00 0 0 0
  -9.58333333333334e-01 -8.43750000000000e-01 -2.75709495806368e-06  4.21875000000000e+00 -4.79166666666667e+00 0 0 0
  -9.16666666666667e-01 -8.43750000000000e-01 -1.02703200610672e-05  4.21875000000000e+00 -4.58333333333334e+00 0 0 0
  -8.75000000000001e-01 -8.43750000000000e-01 -6.77997640060393e-06  4.21875000000000e+00 -4.37500000000000e+00 0 0 0
  -8.33333333333334e-01 -8.43750000000000e-01 4.35338313582843e-05  4.21875000000000e+00 -4.16666666666667e+00 0 0 0
  -7.91666666666667e-01 -8.43750000000000e-01 1.66402827790377e-04  4.21875000000000e+00 -3.95833333333334e+00 0 0 0
  -7.50000000000000e-01 -8.43750000000000e-01 3.19949367202250e-04  4.21875000000000e+00 -3.75000000000000e+00 0 0 0
  -1.00000000000000e+00 -8.12500000000000e-01 2.75920982568088e-19  4.06250000000000e+00 -5.00000000000000e+00 0 0 0
  -9.58333333333333e-01 -8.12500000000000e-01 -5.04133340876145e-06  4.06250000000000e+00 -4.79166666666667e+00 0 0 0
  -9.16666666666667e-01 -8.12500000000000e-01 -1.09750781836188e-05  4.06250000000000e+00 -4.58333333333334e+00 0 0 0
  -8.75000000000001e-01 -8.12500000000000e-01 1.16202661723651e-05  4.06250000000000e+00 -4.37500000000000e+00 0 0 0
  -8.33333333333334e-01 -8.12500000000000e-01 8.53210596345067e-05  4.06250000000000e+00 -4.16666666666667e+00 0 0 0
  -7.91666666666667e-01 -8.12500000000000e-01 2.47214703393626e-04  4.06250000000000e+00 -3.95833333333334e+00 0 0 0
  -7.50000000000000e-01 -8.12500000000000e-01 3.68265488803879e-04  4.06250000000000e+00 -3.75000000000000e+00 0 0 0
  -1.00000000000000e+00 -7.81250000000000e-01 -4.79420648145934e-19  3.90625000000000e+00 -5.00000000000000e+00 0 0 0
  -9.58333333333333e-01 -7.81250000000000e-01 -7.11693979974550e-06  3.90625000000000e+00 -4.79166666666667e+00 0 0 0
  -9.16666666666667e-01 -7.81250000000000e-01 -4.76653659326279e-06  3.90625000000000e+00 -4.58333333333333e+00 0 0 0
  -8.75000000000000e-01 -7.81250000000000e-01 5.01682159081411e-05  3.90625000000000e+00 -4.37500000000000e+00 0 0 0
  -8.33333333333334e-01 -7.81250000000000e-01 1.84299288773642e-04  3.90625000000000e+00 -4.16666666666667e+00 0 0 0
  -7.91666666666667e-01 -7.81250000000000e-01 3.27313132228706e-04  3.90625000000000e+00 -3.95833333333334e+00 0 0 0
  -7.50000000000000e-01 -7.81250000000000e-01 2.61787162266545e-04  3.90625000000000e+00 -3.75000000000000e+00 0 0 0
  -1.00000000000000e+00 -7.50000000000000e-01 -1.29871326637766e-18  3.75000000000000e+00 -5.00000000000000e+00 0 0 0
  -9.58333333333333e-01 -7.50000000000000e-01 -1.09336973161169e-05  3.75000000000000e+00 -4.79166666666667e+00 0 0 0
  -9.16666666666667e-01 -7.50000000000000e-01 3.27241409084339e-05  3.75000000000000e+00 -4.58333333333333e+00 0 0 0
  -8.75000000000000e-01 -7.50000000000000e-01 1.08218041736090e-04  3.75000000000000e+00 -4.37500000000000e+00 0 0 0
  -8.33333333333334e-01 -7.50000000000000e-01 2.62715244493593e-04  3.75000000000000e+00 -4.16666666666667e+00 0 0 0
  -7.91666666666667e-01 -7.50000000000000e-01 2.99837148521108e-04  3.75000000000000e+00 -3.95833333333334e+00 0 0 0
  -7.50000000000000e-01 -7.50000000000000e-01 -1.24067251141040e-04  3.75000000000000e+00 -3.75000000000000e+00 0 0 0
ZONE T =  "Block Number = 1" \ 
I = 7 \ 
J = 9 \ 
F = POINT 
  0.00000000000000e+00 -1.00000000000000e+00 -4.06957502292377e-03  5.00000000000000e+00 0.00000000000000e+00 0 0 0
  4.16666666666667e-02 -1.00000000000000e+00 2.81892564846231e-18  5.00000000000000e+00 2.08333333333333e-01 0 0 0
  8.33333333333333e-02 -1.00000000000000e+00 2.82976767018717e-17  5.00000000000000e+00 4.16666666666667e-01 0 0 0
  1.25000000000000e-01 -1.00000000000000e+00 2.49366499671666e-18  5.00000000000000e+00 6.25000000000000e-01 0 0 0
  1.66666666666667e-01 -1.00000000000000e+00 -1.35850532212434e-16  5.00000000000000e+00 8.33333333333333e-01 0 0 0
  2.08333333333333e-01 -1.00000000000000e+00 1.00939222258400e-16  5.00000000000000e+00 1.04166666666667e+00 0 0 0
  2.50000000000000e-01 -1.00000000000000e+00 -5.45895793846451e-17  5.00000000000000e+00 1.25000000000000e+00 0 0 0
  0.00000000000000e+00 -9.68750000000000e-01 -1.04773731469674e-02  4.84375000000000e+00 0.00000000000000e+00 0 0 0
  4.16666666666667e-02 -9.68750000000000e-01 -9.94504201470236e-03  4.84375000000000e+00 2.08333333333333e-01 0 0 0
  8.33333333333333e-02 -9.68750000000000e-01 -8.85444314162499e-03  4.84375000000000e+00 4.16666666666667e-01 0 0 0
  1.25000000000000e-01 -9.68750000000000e-01 -7.71870420688677e-03  4.84375000000000e+00 6.25000000000000e-01 0 0 0
  1.66666666666667e-01 -9.68750000000000e-01 -6.34554869749708e-03  4.84375000000000e+00 8.33333333333333e-01 0 0 0
  2.08333333333333e-01 -9.68750000000000e-01 -4.85514145182836e-03  4.84375000000000e+00 1.04166666666667e+00 0 0 0
  2.50000000000000e-01 -9.68750000000000e-01 -3.40188617338270e-03  4.84375000000000e+00 1.25000000000000e+00 0 0 0
  0.00000000000000e+00 -9.37500000000000e-01 -1.51984145617969e-02  4.68750000000000e+00 0.00000000000000e+00 0 0 0
  4.16666666666667e-02 -9.37500000000000e-01 -1.51569922319712e-02  4.68750000000000e+00 2.08333333333333e-01 0 0 0
  8.33333333333333e-02 -9.37500000000000e-01 -1.47430885017450e-02  4.68750000000000e+00 4.16666666666667e-01 0 0 0
  1.25000000000000e-01 -9.37500000000000e-01 -1.39247519092991e-02  4.68750000000000e+00 6.25000000000000e-01 0 0 0
  1.66666666666667e-01 -9.37500000000000e-01 -1.26836215459334e-02  4.68750000000000e+00 8.33333333333333e-01 0 0 0
  2.08333333333333e-01 -9.37500000000000e-01 -1.10000989971615e-02  4.68750000000000e+00 1.04166666666667e+00 0 0 0
  2.50000000000000e-01 -9.37500000000000e-01 -8.96540872593033e-03  4.68750000000000e+00 1.25000000000000e+00 0 0 0
  0.00000000000000e+00 -9.06250000000000e-01 -1.85388084712735e-02  4.53125000000000e+00 0.00000000000000e+00 0 0 0
  4.16666666666667e-02 -9.06250000000000e-01 -1.84577154279348e-02  4.53125000000000e+00 2.08333333333333e-01 0 0 0
  8.33333333333333e-02 -9.06250000000000e-01 -1.82760403294223e-02  4.53125000000000e+00 4.16666666666667e-01 0 0 0
  1.25000000000000e-01 -9.06250000000000e-01 -1.79159821993693e-02  4.53125000000000e+00 6.25000000000000e-01 0 0 0
  1.66666666666667e-01 -9.06250000000000e-01 -1.72598848798885e-02  4.53125000000000e+00 8.33333333333334e-01 0 0 0
  2.08333333333333e-01 -9.06250000000000e-01 -1.61686358896726e-02  4.53125000000000e+00 1.04166666666667e+00 0 0 0
  2.50000000000000e-01 -9.06250000000000e-01 -1.45368911490364e-02  4.53125000000000e+00 1.25000000000000e+00 0 0 0
  0.00000000000000e+00 -8.75000000000000e-01 -1.70344246066537e-02  4.37500000000000e+00 0.00000000000000e+00 0 0 0
  4.16666666666667e-02 -8.75000000000000e-01 -1.71333157677781e-02  4.37500000000000e+00 2.08333333333333e-01 0 0 0
  8.33333333333333e-02 -8.75000000000000e-01 -1.74847850817845e-02  4.37500000000000e+00 4.16666666666667e-01 0 0 0
  1.25000000000000e-01 -8.75000000000000e-01 -1.79645115071717e-02  4.37500000000000e+00 6.25000000000000e-01 0 0 0
  1.66666666666667e-01 -8.75000000000000e-01 -1.83798477600652e-02  4.37500000000000e+00 8.33333333333333e-01 0 0 0
  2.08333333333333e-01 -8.75000000000000e-01 -1.84949416413259e-02  4.37500000000000e+00 1.04166666666667e+00 0 0 0
  2.50000000000000e-01 -8.75000000000000e-01 -1.80654478443459e-02  4.37500000000000e+00 1.25000000000000e+00 0 0 0
  0.00000000000000e+00 -8.43750000000000e-01 -6.18457578807373e-03  4.21875000000000e+00 0.00000000000000e+00 0 0 0
  4.16666666666667e-02 -8.43750000000000e-01 -6.66835678123372e-03  4.21875000000000e+00 2.08333333333333e-01 0 0 0
  8.33333333333333e-02 -8.43750000000000e-01 -8.12153233223328e-03  4.21875000000000e+00 4.16666666666667e-01 0 0 0
  1.25000000000000e-01 -8.43750000000000e-01 -1.02878359778365e-02  4.21875000000000e+00 6.25000000000000e-01 0 0 0
  1.66666666666667e-01 -8.43750000000000e-01 -1.27968614671360e-02  4.21875000000000e+00 8.33333333333333e-01 0 0 0
  2.08333333333333e-01 -8.43750000000000e-01 -1.52210686456045e-02  4.21875000000000e+00 1.04166666666667e+00 0 0 0
  2.50000000000000e-01 -8.43750000000000e-01 -1.71305670995135e-02  4.21875000000000e+00 1.25000000000000e+00 0 0 0
  0.00000000000000e+00 -8.12500000000000e-01 1.90770569753271e-02  4.06250000000000e+00 0.00000000000000e+00 0 0 0
  4.16666666666667e-02 -8.12500000000000e-01 1.79958862897677e-02  4.06250000000000e+00 2.08333333333333e-01 0 0 0
  8.33333333333334e-02 -8.12500000000000e-01 1.48124674382074e-02  4.06250000000000e+00 4.16666666666667e-01 0 0 0
  1.25000000000000e-01 -8.12500000000000e-01 9.93304215428901e-03  4.06250000000000e+00 6.25000000000000e-01 0 0 0
  1.66666666666667e-01 -8.12500000000000e-01 3.96583704292381e-03  4.06250000000000e+00 8.33333333333333e-01 0 0 0
  2.08333333333333e-01 -8.12500000000000e-01 -2.36379008467174e-03  4.06250000000000e+00 1.04166666666667e+00 0 0 0
  2.50000000000000e-01 -8.12500000000000e-01 -8.31230463369390e-03  4.06250000000000e+00 1.25000000000000e+00 0 0 0
  0.00000000000000e+00 -7.81250000000000e-01 6.36698544230032e-02  3.90625000000000e+00 0.00000000000000e+00 0 0 0.0096073597983847
  4.16666666666667e-02 -7.81250000000000e-01 6.17678966355164e-02  3.90625000000000e+00 2.08333333333333e-01 0 0 0.0085063503551388
  8.33333333333334e-02 -7.81250000000000e-01 5.62143364860570e-02  3.90625000000000e+00 4.16666666666667e-01 0 0 0.0056099090256965
  1.25000000000000e-01 -7.81250000000000e-01 4.75672792917671e-02  3.90625000000000e+00 6.25000000000000e-01 0 0 0.0021279214097668
  1.66666666666667e-01 -7.81250000000000e-01 3.66844497509806e-02  3.90625000000000e+00 8.33333333333333e-01 0 0 3.7529850534509e-05
  2.08333333333333e-01 -7.81250000000000e-01 2.46337103374680e-02  3.90625000000000e+00 1.04166666666667e+00 0 0 0
  2.50000000000000e-01 -7.81250000000000e-01 1.25680714842060e-02  3.90625000000000e+00 1.25000000000000e+00 0 0 0
  0.00000000000000e+00 -7.50000000000000e-01 1.31249376966852e-01  3.75000000000000e+00 0.00000000000000e+00 0 0 0.066987298107781
  4.16666666666667e-02 -7.50000000000000e-01 1.28340264449809e-01  3.75000000000000e+00 2.08333333333333e-01 0 0 0.063991377034246
  8.33333333333334e-02 -7.50000000000000e-01 1.19880809271164e-01  3.75000000000000e+00 4.16666666666667e-01 0 0 0.055414509470783
  1.25000000000000e-01 -7.50000000000000e-01 1.06559744225999e-01  3.75000000000000e+00 6.25000000000000e-01 0 0 0.042494850195851
  1.66666666666667e-01 -7.50000000000000e-01 8.94577973654953e-02  3.75000000000000e+00 8.33333333333334e-01 0 0 0.027305462086787
  2.08333333333333e-01 -7.50000000000000e-01 6.99704080725752e-02  3.75000000000000e+00 1.04166666666667e+00 0 0 0.012739416661955
  2.50000000000000e-01 -7.50000000000000e-01 4.96837045325798e-02  3.75000000000000e+00 1.25000000000000e+00 0 0 0.0024362480800876
ZONE T =  "Block Number = 2" \ 
I = 7 \ 
J = 9 \ 
F = POINT 
  -1.00000000000000e+00 0.00000000000000e+00 -2.49949656508925e-03  -0.00000000000000e+00 -5.00000000000000e+00 0 0 0
  -9.58333333333333e-01 0.00000000000000e+00 -8.24268425207082e-03  -0.00000000000000e+00 -4.79166666666667e+00 0 0 0
  -9.16666666666667e-01 0.00000000000000e+00 -1.44771426876180e-02  -0.00000000000000e+00 -4.58333333333333e+00 0 0 0
  -8.75000000000000e-01 0.00000000000000e+00 -1.62547544318562e-02  -0.00000000000000e+00 -4.37500000000000e+00 0 0 0
  -8.33333333333333e-01 0.00000000000000e+00 -3.00318985496077e-03  -0.00000000000000e+00 -4.16666666666667e+00 0 0 0
  -7.91666666666667e-01 0.00000000000000e+00 3.90211871828845e-02  -0.00000000000000e+00 -3.95833333333333e+00 0 0 0.0019026509541272
  -7.50000000000000e-01 0.00000000000000e+00 1.22395135183790e-01  -0.00000000000000e+00 -3.75000000000000e+00 0 0 0.066987298107781
  -1.00000000000000e+00 3.12500000000000e-02 -4.52673517849373e-03  -1.56250000000000e-01 -5.00000000000000e+00 0 0 0
  -9.58333333333333e-01 3.12500000000000e-02 -7.91505567054775e-03  -1.56250000000000e-01 -4.79166666666667e+00 0 0 0
  -9.16666666666667e-01 3.12500000000000e-02 -1.44015097935888e-02  -1.56250000000000e-01 -4.58333333333333e+00 0 0 0
  -8.75000000000000e-01 3.12500000000000e-02 -1.63485065442619e-02  -1.56250000000000e-01 -4.37500000000000e+00 0 0 0
  -8.33333333333334e-01 3.12500000000000e-02 -3.41932328376555e-03  -1.56250000000000e-01 -4.16666666666667e+00 0 0 0
  -7.91666666666667e-01 3.12500000000000e-02 3.80522774361298e-02  -1.56250000000000e-01 -3.95833333333333e+00 0 0 0.0016316802432566
  -7.50000000000000e-01 3.12500000000000e-02 1.20685663346991e-01  -1.56250000000000e-01 -3.75000000000000e+00 0 0 0.06529368197369
  -1.00000000000000e+00 6.25000000000000e-02 -3.97814129321347e-03  -3.12500000000000e-01 -5.00000000000000e+00 0 0 0
  -9.58333333333333e-01 6.25000000000000e-02 -7.51701742261505e-03  -3.12500000000000e-01 -4.79166666666667e+00 0 0 0
  -9.16666666666667e-01 6.25000000000000e-02 -1.41987452698171e-02  -3.12500000000000e-01 -4.58333333333333e+00 0 0 0
  -8.75000000000000e-01 6.25000000000000e-02 -1.64806307696311e-02  -3.12500000000000e-01 -4.37500000000000e+00 0 0 0
  -8.33333333333334e-01 6.25000000000000e-02 -4.47886441848078e-03  -3.12500000000000e-01 -4.16666666666667e+00 0 0 0
  -7.91666666666667e-01 6.25000000000000e-02 3.53411324476971e-02  -3.12500000000000e-01 -3.95833333333333e+00 0 0 0.00094437745630758
  -7.50000000000000e-01 6.25000000000000e-02 1.15683615655405e-01  -3.12500000000000e-01 -3.75000000000000e+00 0 0 0.060342689795054
  -1.00000000000000e+00 9.37500000000000e-02 -3.69348176047859e-03  -4.68750000000000e-01 -5.00000000000000e+00 0 0 0
  -9.58333333333333e-01 9.37500000000000e-02 -7.13345434218926e-03  -4.68750000000000e-01 -4.79166666666667e+00 0 0 0
  -9.16666666666667e-01 9.37500000000000e-02 -1.37890228461995e-02  -4.68750000000000e-01 -4.58333333333333e+00 0 0 0
  -8.75000000000000e-01 9.37500000000000e-02 -1.65996552948228e-02  -4.68750000000000e-01 -4.37500000000000e+00 0 0 0
  -8.33333333333334e-01 9.37500000000000e-02 -6.07584806622739e-03  -4.68750000000000e-01 -4.16666666666667e+00 0 0 0
  -7.91666666666667e-01 9.37500000000000e-02 3.10600176733388e-02  -4.68750000000000e-01 -3.95833333333333e+00 0 0 0.00021517944311516
  -7.50000000000000e-01 9.37500000000000e-02 1.07611340523785e-01  -4.68750000000000e-01 -3.75000000000000e+00 0 0 0.052525038306938
  -1.00000000000000e+00 1.25000000000000e-01 -3.24237423007091e-03  -6.25000000000000e-01 -5.00000000000000e+00 0 0 0
  -9.58333333333333e-01 1.25000000000000e-01 -6.55107215137380e-03  -6.25000000000000e-01 -4.79166666666667e+00 0 0 0
  -9.16666666666667e-01 1.25000000000000e-01 -1.31655242206319e-02  -6.25000000000000e-01 -4.58333333333333e+00 0 0 0
  -8.75000000000000e-01 1.25000000000000e-01 -1.66411068389160e-02  -6.25000000000000e-01 -4.37500000000000e+00 0 0 0
  -8.33333333333334e-01 1.25000000000000e-01 -8.03942914873454e-03  -6.25000000000000e-01 -4.16666666666667e+00 0 0 0
  -7.91666666666667e-01 1.25000000000000e-01 2.55025291607396e-02  -6.25000000000000e-01 -3.95833333333333e+00 0 0 0
  -7.50000000000000e-01 1.25000000000000e-01 9.68665316158432e-02  -6.25000000000000e-01 -3.75000000000000e+00 0 0 0.042494850195851
  -1.00000000000000e+00 1.56250000000000e-01 -2.71858091298191e-03  -7.81250000000000e-01 -5.00000000000000e+00 0 0 0
  -9.58333333333334e-01 1.56250000000000e-01 -5.84190776825991e-03  -7.81250000000000e-01 -4.79166666666667e+00 0 0 0
  -9.16666666666667e-01 1.56250000000000e-01 -1.23367557576912e-02  -7.81250000000000e-01 -4.58333333333333e+00 0 0 0
  -8.75000000000000e-01 1.56250000000000e-01 -1.65201171417666e-02  -7.81250000000000e-01 -4.37500000000000e+00 0 0 0
  -8.33333333333334e-01 1.56250000000000e-01 -1.01543508838523e-02  -7.81250000000000e-01 -4.16666666666667e+00 0 0 0
  -7.91666666666667e-01 1.56250000000000e-01 1.90527384087236e-02  -7.81250000000000e-01 -3.95833333333333e+00 0 0 0
  -7.50000000000000e-01 1.56250000000000e-01 8.39886098088175e-02  -7.81250000000000e-01 -3.75000000000000e+00 0 0 0.031170986721587
  -1.00000000000000e+00 1.87500000000000e-01 -2.13790794251741e-03  -9.37500000000000e-01 -5.00000000000000e+00 0 0 0
  -9.58333333333334e-01 1.87500000000000e-01 -5.02303407440813e-03  -9.37500000000000e-01 -4.79166666666667e+00 0 0 0
  -9.16666666666667e-01 1.87500000000000e-01 -1.12991623763686e-02  -9.37500000000000e-01 -4.58333333333334e+00 0 0 0
  -8.75000000000000e-01 1.87500000000000e-01 -1.61534708705638e-02  -9.37500000000000e-01 -4.37500000000000e+00 0 0 0
  -8.33333333333334e-01 1.87500000000000e-01 -1.21830743148154e-02  -9.37500000000000e-01 -4.16666666666667e+00 0 0 0
  -7.91666666666667e-01 1.87500000000000e-01 1.21614296487178e-02  -9.37500000000000e-01 -3.95833333333333e+00 0 0 0
  -7.50000000000000e-01 1.87500000000000e-01 6.96414500026797e-02  -9.37500000000000e-01 -3.75000000000000e+00 0 0 0.019733105153498
  -1.00000000000000e+00 2.18750000000000e-01 -1.53727120492500e-03  -1.09375000000000e+00 -5.00000000000000e+00 0 0 0
  -9.58333333333334e-01 2.18750000000000e-01 -4.13298808405390e-03  -1.09375000000000e+00 -4.79166666666667e+00 0 0 0
  -9.16666666666667e-01 2.18750000000000e-01 -1.00703478689946e-02  -1.09375000000000e+00 -4.58333333333333e+00 0 0 0
  -8.75000000000000e-01 2.18750000000000e-01 -1.54751096311716e-02  -1.09375000000000e+00 -4.37500000000000e+00 0 0 0
  -8.33333333333334e-01 2.18750000000000e-01 -1.38909882970617e-02  -1.09375000000000e+00 -4.16666666666667e+00 0 0 0
  -7.91666666666667e-01 2.18750000000000e-01 5.31092443022886e-03  -1.09375000000000e+00 -3.95833333333333e+00 0 0 0
  -7.50000000000000e-01 2.18750000000000e-01 5.45794571765316e-02  -1.09375000000000e+00 -3.75000000000000e+00 0 0 0.0096073597983847
  -1.00000000000000e+00 2.50000000000000e-01 -9.52694029725308e-04  -1.25000000000000e+00 -5.00000000000000e+00 0 0 0
  -9.58333333333333e-01 2.50000000000000e-01 -3.21462974298993e-03  -1.25000000000000e+00 -4.79166666666667e+00 0 0 0
  -9.16666666666667e-01 2.50000000000000e-01 -8.68433340088228e-03  -1.25000000000000e+00 -4.58333333333333e+00 0 0 0
  -8.75000000000000e-01 2.50000000000000e-01 -1.44472488427093e-02  -1.25000000000000e+00 -4.37500000000000e+00 0 0 0
  -8.33333333333334e-01 2.50000000000000e-01 -1.50736548638529e-02  -1.25000000000000e+00 -4.16666666666667e+00 0 0 0
  -7.91666666666667e-01 2.50000000000000e-01 -1.02560046362670e-03  -1.25000000000000e+00 -3.95833333333333e+00 0 0 0
  -7.50000000000000e-01 2.50000000000000e-01 3.96024744826877e-02  -1.25000000000000e+00 -3.75000000000000e+00 0 0 0.0024362480800875
ZONE T =  "Block Number = 3" \ 
I = 7 \ 
J = 9 \ 
F = POINT 
  0.00000000000000e+00 0.00000000000000e+00 5.77767379312027e-04  -0.00000000000000e+00 0.00000000000000e+00 0 0 0
  4.16666666666667e-02 0.00000000000000e+00 -6.77626357803440e-21  -0.00000000000000e+00 2.08333333333333e-01 0 0 0
  8.33333333333333e-02 0.00000000000000e+00 -1.35525271560688e-20  -0.00000000000000e+00 4.16666666666667e-01 0 0 0
  1.25000000000000e-01 0.00000000000000e+00 0.00000000000000e+00  -0.00000000000000e+00 6.25000000000000e-01 0 0 0
  1.66666666666667e-01 0.00000000000000e+00 -4.33680868994202e-19  -0.00000000000000e+00 8.33333333333333e-01 0 0 0
  2.08333333333333e-01 0.00000000000000e+00 1.15707623129433e-02  -0.00000000000000e+00 1.04166666666667e+00 0 0 0.0019026509541272
  2.50000000000000e-01 0.00000000000000e+00 7.72514281104123e-02  -0.00000000000000e+00 1.25000000000000e+00 0 0 0.066987298107781
  0.00000000000000e+00 3.12500000000000e-02 4.33668879690061e-04  -1.56250000000000e-01 0.00000000000000e+00 0 0 0
  4.16666666666667e-02 3.12500000000000e-02 1.03693432789517e-04  -1.56250000000000e-01 2.08333333333333e-01 0 0 0
  8.33333333333333e-02 3.12500000000000e-02 3.04981408849930e-05  -1.56250000000000e-01 4.16666666666667e-01 0 0 0
  1.25000000000000e-01 3.12500000000000e-02 -6.37733099264324e-04  -1.56250000000000e-01 6.25000000000000e-01 0 0 0
  1.66666666666667e-01 3.12500000000000e-02 -1.06938374115884e-03  -1.56250000000000e-01 8.33333333333333e-01 0 0 0
  2.08333333333333e-01 3.12500000000000e-02 1.38689665332236e-02  -1.56250000000000e-01 1.04166666666667e+00 0 0 0.0031145110557619
  2.50000000000000e-01 3.12500000000000e-02 8.48176064531687e-02  -1.56250000000000e-01 1.25000000000000e+00 0 0 0.072170262752871
  0.00000000000000e+00 6.25000000000000e-02 3.46560978741264e-04  -3.12500000000000e-01 0.00000000000000e+00 0 0 0
  4.16666666666667e-02 6.25000000000000e-02 -1.87744857291693e-05  -3.12500000000000e-01 2.08333333333333e-01 0 0 0
  8.33333333333333e-02 6.25000000000000e-02 -8.48528143358791e-04  -3.12500000000000e-01 4.16666666666667e-01 0 0 0
  1.25000000000000e-01 6.25000000000000e-02 -2.60576390147296e-03  -3.12500000000000e-01 6.25000000000000e-01 0 0 0
  1.66666666666667e-01 6.25000000000000e-02 -1.63937728410644e-03  -3.12500000000000e-01 8.33333333333333e-01 0 0 0
  2.08333333333333e-01 6.25000000000000e-02 2.12453876712975e-02  -3.12500000000000e-01 1.04166666666667e+00 0 0 0.0083786403502296
  2.50000000000000e-01 6.25000000000000e-02 1.02279134600502e-01  -3.12500000000000e-01 1.25000000000000e+00 0 0 0.08851340289233
  0.00000000000000e+00 9.37500000000000e-02 -1.55871592710799e-03  -4.68750000000000e-01 0.00000000000000e+00 0 0 0
  4.16666666666667e-02 9.37500000000000e-02 -1.99995971934734e-03  -4.68750000000000e-01 2.08333333333333e-01 0 0 0
  8.33333333333333e-02 9.37500000000000e-02 -3.76015098226727e-03  -4.68750000000000e-01 4.16666666666667e-01 0 0 0
  1.25000000000000e-01 9.37500000000000e-02 -5.31348555556867e-03  -4.68750000000000e-01 6.25000000000000e-01 0 0 0
  1.66666666666667e-01 9.37500000000000e-02 1.17221272784684e-03  -4.68750000000000e-01 8.33333333333333e-01 0 0 0
  2.08333333333333e-01 9.37500000000000e-02 3.75291392023203e-02  -4.68750000000000e-01 1.04166666666667e+00 0 0 0.022034779654191
  2.50000000000000e-01 9.37500000000000e-02 1.32763047352996e-01  -4.68750000000000e-01 1.25000000000000e+00 0 0 0.11810238123631
  0.00000000000000e+00 1.25000000000000e-01 -6.62706119257595e-03  -6.25000000000000e-01 0.00000000000000e+00 0 0 0
  4.16666666666667e-02 1.25000000000000e-01 -6.74300912761280e-03  -6.25000000000000e-01 2.08333333333333e-01 0 0 0
  8.33333333333333e-02 1.25000000000000e-01 -7.74883860349750e-03  -6.25000000000000e-01 4.16666666666667e-01 0 0 0
  1.25000000000000e-01 1.25000000000000e-01 -5.12618354037549e-03  -6.25000000000000e-01 6.25000000000000e-01 0 0 0
  1.66666666666667e-01 1.25000000000000e-01 1.28068211800614e-02  -6.25000000000000e-01 8.33333333333333e-01 0 0 0.0019026509541272
  2.08333333333333e-01 1.25000000000000e-01 6.74435747402270e-02  -6.25000000000000e-01 1.04166666666667e+00 0 0 0.049741140966061
  2.50000000000000e-01 1.25000000000000e-01 1.78802903642626e-01  -6.25000000000000e-01 1.25000000000000e+00 0 0 0.16352665162974
  0.00000000000000e+00 1.56250000000000e-01 -1.13985249750310e-02  -7.81250000000000e-01 0.00000000000000e+00 0 0 0
  4.16666666666667e-02 1.56250000000000e-01 -1.02480790527140e-02  -7.81250000000000e-01 2.08333333333333e-01 0 0 0
  8.33333333333333e-02 1.56250000000000e-01 -6.97233756535173e-03  -7.81250000000000e-01 4.16666666666667e-01 0 0 0
  1.25000000000000e-01 1.56250000000000e-01 5.43036829399957e-03  -7.81250000000000e-01 6.25000000000000e-01 0 0 2.6132762003914e-07
  1.66666666666667e-01 1.56250000000000e-01 4.03625514949738e-02  -7.81250000000000e-01 8.33333333333333e-01 0 0 0.022034779654191
  2.08333333333333e-01 1.56250000000000e-01 1.15641665889257e-01  -7.81250000000000e-01 1.04166666666667e+00 0 0 0.096777697866259
  2.50000000000000e-01 1.56250000000000e-01 2.42204566912215e-01  -7.81250000000000e-01 1.25000000000000e+00 0 0 0.22685505917291
  0.00000000000000e+00 1.87500000000000e-01 -5.58409900882858e-03  -9.37500000000000e-01 0.00000000000000e+00 0 0 0
  4.16666666666667e-02 1.87500000000000e-01 -2.05268070500003e-03  -9.37500000000000e-01 2.08333333333333e-01 0 0 0
  8.33333333333333e-02 1.87500000000000e-01 9.22393341142200e-03  -9.37500000000000e-01 4.16666666666667e-01 0 0 0.00073673382403379
  1.25000000000000e-01 1.87500000000000e-01 3.60196840598915e-02  -9.37500000000000e-01 6.25000000000000e-01 0 0 0.01751045737067
  1.66666666666667e-01 1.87500000000000e-01 9.06399487939166e-02  -9.37500000000000e-01 8.33333333333333e-01 0 0 0.069273727862846
  2.08333333333333e-01 1.87500000000000e-01 1.85348128167407e-01  -9.37500000000000e-01 1.04166666666667e+00 0 0 0.16654059997571
  2.50000000000000e-01 1.87500000000000e-01 3.23291074617074e-01  -9.37500000000000e-01 1.25000000000000e+00 0 0 0.30865828381746
  0.00000000000000e+00 2.18750000000000e-01 2.46165064829965e-02  -1.09375000000000e+00 0.00000000000000e+00 0 0 0.0096073597983848
  4.16666666666667e-02 2.18750000000000e-01 3.12265037364458e-02  -1.09375000000000e+00 2.08333333333333e-01 0 0 0.014039492288355
  8.33333333333334e-02 2.18750000000000e-01 5.24523215977389e-02  -1.09375000000000e+00 4.16666666666667e-01 0 0 0.031515184611852
  1.25000000000000e-01 2.18750000000000e-01 9.49636740745765e-02  -1.09375000000000e+00 6.25000000000000e-01 0 0 0.072170262752871
  1.66666666666667e-01 2.18750000000000e-01 1.67768071824730e-01  -1.09375000000000e+00 8.33333333333333e-01 0 0 0.14647582738574
  2.08333333333333e-01 2.18750000000000e-01 2.77101154529225e-01  -1.09375000000000e+00 1.04166666666667e+00 0 0 0.25950561554031
  2.50000000000000e-01 2.18750000000000e-01 4.20239804696522e-01  -1.09375000000000e+00 1.25000000000000e+00 0 0 0.40729732573502
  0.00000000000000e+00 2.50000000000000e-01 9.00615133840884e-02  -1.25000000000000e+00 0.00000000000000e+00 0 0 0.066987298107781