TITLE = "CFFC: 2D Advection Diffusion Equation Solution, Time Step/Iteration Level = 1000, Time = 5.5918425700111"
VARIABLES = "x" \ 
"y" \ 
"u" \ 
"Vx" \ 
"Vy" \ 
"k" \ 
"s" \ 
"ExactSoln" \ 
ZONE T =  "Block Number = 0" \ 
I = 10 \ 
J = 12 \ 
F = POINT 
  -1.06250000000000e+00 -1.04687500000000e+00 -1.27856152455854e-07  5.23437500000000e+00 -5.31250000000000e+00 0 0 0
  -1.02083333333333e+00 -1.04687500000000e+00 -4.26187174852844e-08  5.23437500000000e+00 -5.10416666666667e+00 0 0 0
  -9.79166666666667e-01 -1.04687500000000e+00 4.26187174852844e-08  5.23437500000000e+00 -4.89583333333333e+00 0 0 0
  -9.37500000000000e-01 -1.04687500000000e+00 7.39245061143894e-07  5.23437500000000e+00 -4.68750000000000e+00 0 0 0
  -8.95833333333333e-01 -1.04687500000000e+00 7.57560730167710e-07  5.23437500000000e+00 -4.47916666666667e+00 0 0 0
  -8.54166666666667e-01 -1.04687500000000e+00 -3.36823105464970e-06  5.23437500000000e+00 -4.27083333333333e+00 0 0 0
  -8.12500000000000e-01 -1.04687500000000e+00 -1.35412178903186e-05  5.23437500000000e+00 -4.06250000000000e+00 0 0 0
  -7.70833333333333e-01 -1.04687500000000e+00 -2.38101127036505e-05  5.23437500000000e+00 -3.85416666666667e+00 0 0 0
  -7.29166666666667e-01 -1.04687500000000e+00 -1.73242337118351e-05  5.23437500000000e+00 -3.64583333333333e+00 0 0 0
  -6.87500000000000e-01 -1.04687500000000e+00 2.85449556950574e-05  5.23437500000000e+00 -3.43750000000000e+00 0 0 0
  -1.06250000000000e+00 -1.01562500000000e+00 -1.27856152455854e-07  5.07812500000000e+00 -5.31250000000000e+00 0 0 0
  -1.02083333333333e+00 -1.01562500000000e+00 -4.26187174852844e-08  5.07812500000000e+00 -5.10416666666667e+00 0 0 0
  -9.79166666666667e-01 -1.01562500000000e+00 4.26187174852844e-08  5.07812500000000e+00 -4.89583333333333e+00 0 0 0
  -9.37500000000000e-01 -1.01562500000000e+00 7.39245061143894e-07  5.07812500000000e+00 -4.68750000000000e+00 0 0 0
  -8.95833333333333e-01 -1.01562500000000e+00 7.57560730167710e-07  5.07812500000000e+00 -4.47916666666667e+00 0 0 0
  -8.54166666666667e-01 -1.01562500000000e+00 -3.36823105464970e-06  5.07812500000000e+00 -4.27083333333333e+00 0 0 0
  -8.12500000000000e-01 -1.01562500000000e+00 -1.35412178903186e-05  5.07812500000000e+00 -4.06250000000000e+00 0 0 0
  -7.70833333333333e-01 -1.01562500000000e+00 -2.38101127036505e-05  5.07812500000000e+00 -3.85416666666667e+00 0 0 0
  -7.29166666666667e-01 -1.01562500000000e+00 -1.73242337118351e-05  5.07812500000000e+00 -3.64583333333333e+00 0 0 0
  -6.87500000000000e-01 -1.01562500000000e+00 2.85449556950574e-05  5.07812500000000e+00 -3.43750000000000e+00 0 0 0
  -1.06250000000000e+00 -9.84375000000000e-01 -1.27856152455854e-07  4.92187500000000e+00 -5.31250000000000e+00 0 0 0
  -1.02083333333333e+00 -9.84375000000000e-01 -4.26187174852844e-08  4.92187500000000e+00 -5.10416666666667e+00 0 0 0
  -9.79166666666667e-01 -9.84375000000000e-01 4.26187174852844e-08  4.92187500000000e+00 -4.89583333333333e+00 0 0 0
  -9.37500000000000e-01 -9.84375000000000e-01 7.39245061143894e-07  4.92187500000000e+00 -4.68750000000000e+00 0 0 0
  -8.95833333333333e-01 -9.84375000000000e-01 7.57560730167710e-07  4.92187500000000e+00 -4.47916666666667e+00 0 0 0
  -8.54166666666667e-01 -9.84375000000000e-01 -3.36823105464970e-06  4.92187500000000e+00 -4.27083333333333e+00 0 0 0
  -8.12500000000000e-01 -9.84375000000000e-01 -1.35412178903186e-05  4.92187500000000e+00 -4.06250000000000e+00 0 0 0
  -7.70833333333333e-01 -9.84375000000000e-01 -2.38101127036505e-05  4.92187500000000e+00 -3.85416666666667e+00 0 0 0
  -7.29166666666667e-01 -9.84375000000000e-01 -1.73242337118351e-05  4.92187500000000e+00 -3.64583333333333e+00 0 0 0
  -6.87500000000000e-01 -9.84375000000000e-01 2.85449556950574e-05  4.92187500000000e+00 -3.43750000000000e+00 0 0 0
  -1.06250000000000e+00 -9.53125000000000e-01 -5.93231736890498e-07  4.76562500000000e+00 -5.31250000000000e+00 0 0 0
  -1.02083333333333e+00 -9.53125000000000e-01 -1.97743912296833e-07  4.76562500000000e+00 -5.10416666666667e+00 0 0 0
  -9.79166666666667e-01 -9.53125000000000e-01 1.97743912296833e-07  4.76562500000000e+00 -4.89583333333333e+00 0 0 0
  -9.37500000000000e-01 -9.53125000000000e-01 7.99014669619321e-07  4.76562500000000e+00 -4.68750000000000e+00 0 0 0
  -8.95833333333333e-01 -9.53125000000000e-01 -1.34772700135161e-06  4.76562500000000e+00 -4.47916666666667e+00 0 0 0
  -8.54166666666667e-01 -9.53125000000000e-01 -9.74336360168642e-06  4.76562500000000e+00 -4.27083333333333e+00 0 0 0
  -8.12500000000000e-01 -9.53125000000000e-01 -2.07123872994369e-05  4.76562500000000e+00 -4.06250000000000e+00 0 0 0
  -7.70833333333333e-01 -9.53125000000000e-01 -1.70640676647880e-05  4.76562500000000e+00 -3.85416666666667e+00 0 0 0
  -7.29166666666667e-01 -9.53125000000000e-01 2.81740260020533e-05  4.76562500000000e+00 -3.64583333333333e+00 0 0 0
  -6.87500000000000e-01 -9.53125000000000e-01 1.35750872083711e-04  4.76562500000000e+00 -3.43750000000000e+00 0 0 0
  -1.06250000000000e+00 -9.21875000000000e-01 -1.10067336184136e-06  4.60937500000000e+00 -5.31250000000000e+00 0 0 0
  -1.02083333333333e+00 -9.21875000000000e-01 -3.66891120613785e-07  4.60937500000000e+00 -5.10416666666667e+00 0 0 0
  -9.79166666666667e-01 -9.21875000000000e-01 3.66891120613785e-07  4.60937500000000e+00 -4.89583333333333e+00 0 0 0
  -9.37500000000000e-01 -9.21875000000000e-01 3.44328982580532e-07  4.60937500000000e+00 -4.68750000000000e+00 0 0 0
  -8.95833333333334e-01 -9.21875000000000e-01 -4.82066465961408e-06  4.60937500000000e+00 -4.47916666666667e+00 0 0 0
  -8.54166666666667e-01 -9.21875000000000e-01 -1.58971453358364e-05  4.60937500000000e+00 -4.27083333333333e+00 0 0 0
  -8.12500000000000e-01 -9.21875000000000e-01 -1.95521086933262e-05  4.60937500000000e+00 -4.06250000000000e+00 0 0 0
  -7.70833333333333e-01 -9.21875000000000e-01 1.30202071775964e-05  4.60937500000000e+00 -3.85416666666667e+00 0 0 0
  -7.29166666666667e-01 -9.21875000000000e-01 1.10160680110717e-04  4.60937500000000e+00 -3.64583333333333e+00 0 0 0
  -6.87500000000000e-01 -9.21875000000000e-01 2.71948376314316e-04  4.60937500000000e+00 -3.43750000000000e+00 0 0 0
  -1.06250000000000e+00 -8.90625000000000e-01 -1.50392544485600e-06  4.45312500000000e+00 -5.31250000000000e+00 0 0 0
  -1.02083333333333e+00 -8.90625000000000e-01 -5.01308481618665e-07  4.45312500000000e+00 -5.10416666666667e+00 0 0 0
  -9.79166666666667e-01 -8.90625000000000e-01 5.01308481618665e-07  4.45312500000000e+00 -4.89583333333333e+00 0 0 0
  -9.37500000000000e-01 -8.90625000000000e-01 -1.11621523728637e-06  4.45312500000000e+00 -4.68750000000000e+00 0 0 0
  -8.95833333333334e-01 -8.90625000000000e-01 -9.85549195538302e-06  4.45312500000000e+00 -4.47916666666667e+00 0 0 0
  -8.54166666666667e-01 -8.90625000000000e-01 -1.90933957249355e-05  4.45312500000000e+00 -4.27083333333333e+00 0 0 0
  -8.12500000000000e-01 -8.90625000000000e-01 -1.85473137337315e-06  4.45312500000000e+00 -4.06250000000000e+00 0 0 0
  -7.70833333333333e-01 -8.90625000000000e-01 7.78555807255985e-05  4.45312500000000e+00 -3.85416666666667e+00 0 0 0
  -7.29166666666667e-01 -8.90625000000000e-01 2.32064982531406e-04  4.45312500000000e+00 -3.64583333333333e+00 0 0 0
  -6.87500000000000e-01 -8.90625000000000e-01 4.12705245451258e-04  4.45312500000000e+00 -3.43750000000000e+00 0 0 0
  -1.06250000000000e+00 -8.59375000000000e-01 -1.37984868774053e-06  4.29687500000000e+00 -5.31250000000000e+00 0 0 0
  -1.02083333333333e+00 -8.59375000000000e-01 -4.59949562580176e-07  4.29687500000000e+00 -5.10416666666667e+00 0 0 0
  -9.79166666666667e-01 -8.59375000000000e-01 4.59949562580176e-07  4.29687500000000e+00 -4.89583333333333e+00 0 0 0
  -9.37500000000000e-01 -8.59375000000000e-01 -3.83854606973894e-06  4.29687500000000e+00 -4.68750000000000e+00 0 0 0
  -8.95833333333334e-01 -8.59375000000000e-01 -1.47672460013797e-05  4.29687500000000e+00 -4.47916666666667e+00 0 0 0
  -8.54166666666667e-01 -8.59375000000000e-01 -1.27656931185398e-05  4.29687500000000e+00 -4.27083333333334e+00 0 0 0
  -8.12500000000000e-01 -8.59375000000000e-01 4.23893591229869e-05  4.29687500000000e+00 -4.06250000000000e+00 0 0 0
  -7.70833333333333e-01 -8.59375000000000e-01 1.78981984879813e-04  4.29687500000000e+00 -3.85416666666667e+00 0 0 0
  -7.29166666666667e-01 -8.59375000000000e-01 3.63675491649143e-04  4.29687500000000e+00 -3.64583333333333e+00 0 0 0
  -6.87500000000000e-01 -8.59375000000000e-01 4.68994980144996e-04  4.29687500000000e+00 -3.43750000000000e+00 0 0 0
  -1.06250000000000e+00 -8.28125000000000e-01 -9.00537601354365e-08  4.14062500000000e+00 -5.31250000000000e+00 0 0 0
  -1.02083333333333e+00 -8.28125000000000e-01 -3.00179200451455e-08  4.14062500000000e+00 -5.10416666666667e+00 0 0 0
  -9.79166666666667e-01 -8.28125000000000e-01 3.00179200451455e-08  4.14062500000000e+00 -4.89583333333333e+00 0 0 0
  -9.37500000000000e-01 -8.28125000000000e-01 -7.66008315843799e-06  4.14062500000000e+00 -4.68750000000000e+00 0 0 0
  -8.95833333333334e-01 -8.28125000000000e-01 -1.61287697256060e-05  4.14062500000000e+00 -4.47916666666667e+00 0 0 0
  -8.54166666666667e-01 -8.28125000000000e-01 1.12076300351862e-05  4.14062500000000e+00 -4.27083333333333e+00 0 0 0
  -8.12500000000000e-01 -8.28125000000000e-01 1.18691902559084e-04  4.14062500000000e+00 -4.06250000000000e+00 0 0 0
  -7.70833333333333e-01 -8.28125000000000e-01 2.99246215145670e-04  4.14062500000000e+00 -3.85416666666667e+00 0 0 0
  -7.29166666666667e-01 -8.28125000000000e-01 4.37893777134583e-04  4.14062500000000e+00 -3.64583333333333e+00 0 0 0
  -6.87500000000000e-01 -8.28125000000000e-01 3.03952059867145e-04  4.14062500000000e+00 -3.43750000000000e+00 0 0 0
  -1.06250000000000e+00 -7.96875000000000e-01 3.03514379204398e-06  3.98437500000000e+00 -5.31250000000000e+00 0 0 0
  -1.02083333333333e+00 -7.96875000000000e-01 1.01171459734799e-06  3.98437500000000e+00 -5.10416666666667e+00 0 0 0
  -9.79166666666667e-01 -7.96875000000000e-01 -1.01171459734799e-06  3.98437500000000e+00 -4.89583333333333e+00 0 0 0
  -9.37500000000000e-01 -7.96875000000000e-01 -1.15235537992927e-05  3.98437500000000e+00 -4.68750000000000e+00 0 0 0
  -8.95833333333334e-01 -7.96875000000000e-01 -8.58790605118627e-06  3.98437500000000e+00 -4.47916666666667e+00 0 0 0
  -8.54166666666667e-01 -7.96875000000000e-01 5.99901104310544e-05  3.98437500000000e+00 -4.27083333333333e+00 0 0 0
  -8.12500000000000e-01 -7.96875000000000e-01 2.20622382369707e-04  3.98437500000000e+00 -4.06250000000000e+00 0 0 0
  -7.70833333333333e-01 -7.96875000000000e-01 3.91958407577947e-04  3.98437500000000e+00 -3.85416666666667e+00 0 0 0
  -7.29166666666667e-01 -7.96875000000000e-01 3.43963555357830e-04  3.98437500000000e+00 -3.64583333333333e+00 0 0 0
  -6.87500000000000e-01 -7.96875000000000e-01 -2.57833869535914e-04  3.98437500000000e+00 -3.43750000000000e+00 0 0 0
  -1.06250000000000e+00 -7.65625000000000e-01 8.37671250789547e-06  3.82812500000000e+00 -5.31250000000000e+00 0 0 0
  -1.02083333333333e+00 -7.65625000000000e-01 2.79223750263182e-06  3.82812500000000e+00 -5.10416666666667e+00 0 0 0
  -9.79166666666667e-01 -7.65625000000000e-01 -2.79223750263182e-06  3.82812500000000e+00 -4.89583333333333e+00 0 0 0
  -9.37500000000000e-01 -7.65625000000000e-01 -1.31402532996994e-05  3.82812500000000e+00 -4.68750000000000e+00 0 0 0
  -8.95833333333333e-01 -7.65625000000000e-01 1.41855667770343e-05  3.82812500000000e+00 -4.47916666666667e+00 0 0 0
  -8.54166666666667e-01 -7.65625000000000e-01 1.35085092475687e-04  3.82812500000000e+00 -4.27083333333333e+00 0 0 0
  -8.12500000000000e-01 -7.65625000000000e-01 3.21499569818287e-04  3.82812500000000e+00 -4.06250000000000e+00 0 0 0
  -7.70833333333333e-01 -7.65625000000000e-01 3.75172169149112e-04  3.82812500000000e+00 -3.85416666666667e+00 0 0 0
  -7.29166666666667e-01 -7.65625000000000e-01 -6.39454830174466e-05  3.82812500000000e+00 -3.64583333333333e+00 0 0 0
  -6.87500000000000e-01 -7.65625000000000e-01 -1.39497254512273e-03  3.82812500000000e+00 -3.43750000000000e+00 0 0 0
  -1.06250000000000e+00 -7.34375000000000e-01 1.55171411196726e-05  3.67187500000000e+00 -5.31250000000000e+00 0 0 0
  -1.02083333333333e+00 -7.34375000000000e-01 5.17238037322420e-06  3.67187500000000e+00 -5.10416666666667e+00 0 0 0
  -9.79166666666667e-01 -7.34375000000000e-01 -5.17238037322420e-06  3.67187500000000e+00 -4.89583333333333e+00 0 0 0
  -9.37500000000000e-01 -7.34375000000000e-01 -8.92661393864731e-06  3.67187500000000e+00 -4.68750000000000e+00 0 0 0
  -8.95833333333333e-01 -7.34375000000000e-01 5.72982425608110e-05  3.67187500000000e+00 -4.47916666666667e+00 0 0 0
  -8.54166666666667e-01 -7.34375000000000e-01 2.26303265130917e-04  3.67187500000000e+00 -4.27083333333333e+00 0 0 0
  -8.12500000000000e-01 -7.34375000000000e-01 3.67973050549688e-04  3.67187500000000e+00 -4.06250000000000e+00 0 0 0
  -7.70833333333333e-01 -7.34375000000000e-01 1.34703804568011e-04  3.67187500000000e+00 -3.85416666666667e+00 0 0 0
  -7.29166666666667e-01 -7.34375000000000e-01 -9.42199495261537e-04  3.67187500000000e+00 -3.64583333333333e+00 0 0 0
  -6.87500000000000e-01 -7.34375000000000e-01 -3.23567201268040e-03  3.67187500000000e+00 -3.43750000000000e+00 0 0 0
  -1.06250000000000e+00 -7.03125000000000e-01 2.26553045567838e-05  3.51562500000000e+00 -5.31250000000000e+00 0 0 0
  -1.02083333333333e+00 -7.03125000000000e-01 7.55176818559456e-06  3.51562500000000e+00 -5.10416666666667e+00 0 0 0
  -9.79166666666667e-01 -7.03125000000000e-01 -7.55176818559456e-06  3.51562500000000e+00 -4.89583333333333e+00 0 0 0
  -9.37500000000000e-01 -7.03125000000000e-01 5.50728482911052e-06  3.51562500000000e+00 -4.68750000000000e+00 0 0 0
  -8.95833333333333e-01 -7.03125000000000e-01 1.21147689540563e-04  3.51562500000000e+00 -4.47916666666667e+00 0 0 0
  -8.54166666666667e-01 -7.03125000000000e-01 3.05876888882745e-04  3.51562500000000e+00 -4.27083333333333e+00 0 0 0
  -8.12500000000000e-01 -7.03125000000000e-01 2.78929223324982e-04  3.51562500000000e+00 -4.06250000000000e+00 0 0 0
  -7.70833333333333e-01 -7.03125000000000e-01 -4.60707761703420e-04  3.51562500000000e+00 -3.85416666666667e+00 0 0 0
  -7.29166666666667e-01 -7.03125000000000e-01 -2.41782519159793e-03  3.51562500000000e+00 -3.64583333333333e+00 0 0 0
  -6.87500000000000e-01 -7.03125000000000e-01 -5.79415138468513e-03  3.51562500000000e+00 -3.43750000000000e+00 0 0 0
ZONE T =  "Block Number = 1" \ 
I = 10 \ 
J = 12 \ 
F = POINT 
  -6.24999999999999e-02 -1.04687500000000e+00 -6.57379060527797e-03  5.23437500000000e+00 -3.12500000000000e-01 0 0 0
  -2.08333333333333e-02 -1.04687500000000e+00 -8.13915004584595e-03  5.23437500000000e+00 -1.04166666666667e-01 0 0 0
  2.08333333333333e-02 -1.04687500000000e+00 2.43191427986196e-02  5.23437500000000e+00 1.04166666666667e-01 0 0 0
  6.25000000000000e-02 -1.04687500000000e+00 1.78195822943220e-02  5.23437500000000e+00 3.12500000000000e-01 0 0 0
  1.04166666666667e-01 -1.04687500000000e+00 1.43124414345880e-02  5.23437500000000e+00 5.20833333333333e-01 0 0 0
  1.45833333333333e-01 -1.04687500000000e+00 1.04037519001884e-02  5.23437500000000e+00 7.29166666666667e-01 0 0 0
  1.87500000000000e-01 -1.04687500000000e+00 6.75008560169288e-03  5.23437500000000e+00 9.37500000000000e-01 0 0 0
  2.29166666666667e-01 -1.04687500000000e+00 3.74769756199617e-03  5.23437500000000e+00 1.14583333333333e+00 0 0 0
  2.70833333333333e-01 -1.04687500000000e+00 1.59217749746825e-03  5.23437500000000e+00 1.35416666666667e+00 0 0 0
  3.12500000000000e-01 -1.04687500000000e+00 2.74955951586434e-04  5.23437500000000e+00 1.56250000000000e+00 0 0 0
  -6.24999999999999e-02 -1.01562500000000e+00 -6.57379060527797e-03  5.07812500000000e+00 -3.12500000000000e-01 0 0 0
  -2.08333333333333e-02 -1.01562500000000e+00 -8.13915004584595e-03  5.07812500000000e+00 -1.04166666666667e-01 0 0 0
  2.08333333333333e-02 -1.01562500000000e+00 8.10638093287321e-03  5.07812500000000e+00 1.04166666666667e-01 0 0 0
  6.25000000000000e-02 -1.01562500000000e+00 5.93986076477400e-03  5.07812500000000e+00 3.12500000000000e-01 0 0 0
  1.04166666666667e-01 -1.01562500000000e+00 4.77081381152934e-03  5.07812500000000e+00 5.20833333333333e-01 0 0 0
  1.45833333333333e-01 -1.01562500000000e+00 3.46791730006281e-03  5.07812500000000e+00 7.29166666666667e-01 0 0 0
  1.87500000000000e-01 -1.01562500000000e+00 2.25002853389763e-03  5.07812500000000e+00 9.37500000000000e-01 0 0 0
  2.29166666666667e-01 -1.01562500000000e+00 1.24923252066539e-03  5.07812500000000e+00 1.14583333333333e+00 0 0 0
  2.70833333333333e-01 -1.01562500000000e+00 5.30725832489416e-04  5.07812500000000e+00 1.35416666666667e+00 0 0 0
  3.12500000000000e-01 -1.01562500000000e+00 9.16519838621447e-05  5.07812500000000e+00 1.56250000000000e+00 0 0 0
  -6.25000000000000e-02 -9.84375000000000e-01 -6.57379060527797e-03  4.92187500000000e+00 -3.12500000000000e-01 0 0 0
  -2.08333333333333e-02 -9.84375000000000e-01 -8.13915004584595e-03  4.92187500000000e+00 -1.04166666666667e-01 0 0 0
  2.08333333333333e-02 -9.84375000000000e-01 -8.10638093287321e-03  4.92187500000000e+00 1.04166666666667e-01 0 0 0
  6.25000000000000e-02 -9.84375000000000e-01 -5.93986076477400e-03  4.92187500000000e+00 3.12500000000000e-01 0 0 0
  1.04166666666667e-01 -9.84375000000000e-01 -4.77081381152931e-03  4.92187500000000e+00 5.20833333333333e-01 0 0 0
  1.45833333333333e-01 -9.84375000000000e-01 -3.46791730006281e-03  4.92187500000000e+00 7.29166666666667e-01 0 0 0
  1.87500000000000e-01 -9.84375000000000e-01 -2.25002853389763e-03  4.92187500000000e+00 9.37500000000000e-01 0 0 0
  2.29166666666667e-01 -9.84375000000000e-01 -1.24923252066539e-03  4.92187500000000e+00 1.14583333333333e+00 0 0 0
  2.70833333333333e-01 -9.84375000000000e-01 -5.30725832489416e-04  4.92187500000000e+00 1.35416666666667e+00 0 0 0
  3.12500000000000e-01 -9.84375000000000e-01 -9.16519838621447e-05  4.92187500000000e+00 1.56250000000000e+00 0 0 0
  -6.25000000000000e-02 -9.53125000000000e-01 -1.24281303090853e-02  4.76562500000000e+00 -3.12500000000000e-01 0 0 0
  -2.08333333333333e-02 -9.53125000000000e-01 -1.26937277622392e-02  4.76562500000000e+00 -1.04166666666667e-01 0 0 0
  2.08333333333333e-02 -9.53125000000000e-01 -1.29702338469098e-02  4.76562500000000e+00 1.04166666666667e-01 0 0 0
  6.25000000000000e-02 -9.53125000000000e-01 -1.27636925142511e-02  4.76562500000000e+00 3.12500000000000e-01 0 0 0
  1.04166666666667e-01 -9.53125000000000e-01 -1.19434054759439e-02  4.76562500000000e+00 5.20833333333333e-01 0 0 0
  1.45833333333333e-01 -9.53125000000000e-01 -1.06926802400096e-02  4.76562500000000e+00 7.29166666666667e-01 0 0 0
  1.87500000000000e-01 -9.53125000000000e-01 -8.97156871601695e-03  4.76562500000000e+00 9.37500000000000e-01 0 0 0
  2.29166666666667e-01 -9.53125000000000e-01 -6.94973603673195e-03  4.76562500000000e+00 1.14583333333333e+00 0 0 0
  2.70833333333333e-01 -9.53125000000000e-01 -4.87785030364298e-03  4.76562500000000e+00 1.35416666666667e+00 0 0 0
  3.12500000000000e-01 -9.53125000000000e-01 -3.01156013382026e-03  4.76562500000000e+00 1.56250000000000e+00 0 0 0
  -6.25000000000000e-02 -9.21875000000000e-01 -1.73751089454269e-02  4.60937500000000e+00 -3.12500000000000e-01 0 0 0
  -2.08333333333333e-02 -9.21875000000000e-01 -1.75843992612907e-02  4.60937500000000e+00 -1.04166666666667e-01 0 0 0
  2.08333333333333e-02 -9.21875000000000e-01 -1.75452973767499e-02  4.60937500000000e+00 1.04166666666667e-01 0 0 0
  6.25000000000000e-02 -9.21875000000000e-01 -1.73487451899759e-02  4.60937500000000e+00 3.12500000000000e-01 0 0 0
  1.04166666666667e-01 -9.21875000000000e-01 -1.69165108268104e-02  4.60937500000000e+00 5.20833333333333e-01 0 0 0
  1.45833333333333e-01 -9.21875000000000e-01 -1.61464110944335e-02  4.60937500000000e+00 7.29166666666667e-01 0 0 0
  1.87500000000000e-01 -9.21875000000000e-01 -1.49238261332738e-02  4.60937500000000e+00 9.37500000000000e-01 0 0 0
  2.29166666666667e-01 -9.21875000000000e-01 -1.31552651026235e-02  4.60937500000000e+00 1.14583333333333e+00 0 0 0
  2.70833333333333e-01 -9.21875000000000e-01 -1.08787834607219e-02  4.60937500000000e+00 1.35416666666667e+00 0 0 0
  3.12500000000000e-01 -9.21875000000000e-01 -8.28658346404834e-03  4.60937500000000e+00 1.56250000000000e+00 0 0 0
  -6.25000000000000e-02 -8.90625000000000e-01 -1.95782000854607e-02  4.45312500000000e+00 -3.12500000000000e-01 0 0 0
  -2.08333333333333e-02 -8.90625000000000e-01 -1.95377424690143e-02  4.45312500000000e+00 -1.04166666666667e-01 0 0 0
  2.08333333333333e-02 -8.90625000000000e-01 -1.94877947780419e-02  4.45312500000000e+00 1.04166666666667e-01 0 0 0
  6.25000000000000e-02 -8.90625000000000e-01 -1.94490243669745e-02  4.45312500000000e+00 3.12500000000000e-01 0 0 0
  1.04166666666667e-01 -8.90625000000000e-01 -1.93898809339312e-02  4.45312500000000e+00 5.20833333333333e-01 0 0 0
  1.45833333333333e-01 -8.90625000000000e-01 -1.92111259423044e-02  4.45312500000000e+00 7.29166666666667e-01 0 0 0
  1.87500000000000e-01 -8.90625000000000e-01 -1.87581763495451e-02  4.45312500000000e+00 9.37500000000000e-01 0 0 0
  2.29166666666667e-01 -8.90625000000000e-01 -1.78372759732498e-02  4.45312500000000e+00 1.14583333333333e+00 0 0 0
  2.70833333333333e-01 -8.90625000000000e-01 -1.62762400595519e-02  4.45312500000000e+00 1.35416666666667e+00 0 0 0
  3.12500000000000e-01 -8.90625000000000e-01 -1.40191559747844e-02  4.45312500000000e+00 1.56250000000000e+00 0 0 0
  -6.25000000000000e-02 -8.59375000000000e-01 -1.52091851420481e-02  4.29687500000000e+00 -3.12500000000000e-01 0 0 0
  -2.08333333333333e-02 -8.59375000000000e-01 -1.45794156661312e-02  4.29687500000000e+00 -1.04166666666667e-01 0 0 0
  2.08333333333333e-02 -8.59375000000000e-01 -1.45327455134326e-02  4.29687500000000e+00 1.04166666666667e-01 0 0 0
  6.25000000000000e-02 -8.59375000000000e-01 -1.50636984126679e-02  4.29687500000000e+00 3.12500000000000e-01 0 0 0
  1.04166666666667e-01 -8.59375000000000e-01 -1.60365366135696e-02  4.29687500000000e+00 5.20833333333333e-01 0 0 0
  1.45833333333333e-01 -8.59375000000000e-01 -1.72205025388865e-02  4.29687500000000e+00 7.29166666666667e-01 0 0 0
  1.87500000000000e-01 -8.59375000000000e-01 -1.83295862095283e-02  4.29687500000000e+00 9.37500000000000e-01 0 0 0
  2.29166666666667e-01 -8.59375000000000e-01 -1.90547280329832e-02  4.29687500000000e+00 1.14583333333333e+00 0 0 0
  2.70833333333333e-01 -8.59375000000000e-01 -1.90935473116020e-02  4.29687500000000e+00 1.35416666666667e+00 0 0 0
  3.12500000000000e-01 -8.59375000000000e-01 -1.82045564401449e-02  4.29687500000000e+00 1.56250000000000e+00 0 0 0
  -6.25000000000000e-02 -8.28125000000000e-01 5.55956352695682e-04  4.14062500000000e+00 -3.12500000000000e-01 0 0 0
  -2.08333333333333e-02 -8.28125000000000e-01 2.16301354185207e-03  4.14062500000000e+00 -1.04166666666667e-01 0 0 0
  2.08333333333333e-02 -8.28125000000000e-01 2.21084448540294e-03  4.14062500000000e+00 1.04166666666667e-01 0 0 0
  6.25000000000000e-02 -8.28125000000000e-01 7.12172315748699e-04  4.14062500000000e+00 3.12500000000000e-01 0 0 0
  1.04166666666667e-01 -8.28125000000000e-01 -2.09806661845731e-03  4.14062500000000e+00 5.20833333333333e-01 0 0 0
  1.45833333333333e-01 -8.28125000000000e-01 -5.79623814044361e-03  4.14062500000000e+00 7.29166666666667e-01 0 0 0
  1.87500000000000e-01 -8.28125000000000e-01 -9.84111897969478e-03  4.14062500000000e+00 9.37500000000000e-01 0 0 0
  2.29166666666667e-01 -8.28125000000000e-01 -1.36588413602188e-02  4.14062500000000e+00 1.14583333333333e+00 0 0 0
  2.70833333333333e-01 -8.28125000000000e-01 -1.67151516932545e-02  4.14062500000000e+00 1.35416666666667e+00 0 0 0
  3.12500000000000e-01 -8.28125000000000e-01 -1.85689393651168e-02  4.14062500000000e+00 1.56250000000000e+00 0 0 0
  -6.25000000000000e-02 -7.96875000000000e-01 3.29396819513159e-02  3.98437500000000e+00 -3.12500000000000e-01 0 0 1.2594169153575e-05
  -2.08333333333333e-02 -7.96875000000000e-01 3.59493177181494e-02  3.98437500000000e+00 -1.04166666666667e-01 0 0 0.00022309088609657
  2.08333333333333e-02 -7.96875000000000e-01 3.59850521558754e-02  3.98437500000000e+00 1.04166666666667e-01 0 0 0.00022309088609657
  6.25000000000000e-02 -7.96875000000000e-01 3.30754762020160e-02  3.98437500000000e+00 3.12500000000000e-01 0 0 1.2594169153575e-05
  1.04166666666667e-01 -7.96875000000000e-01 2.75602878534960e-02  3.98437500000000e+00 5.20833333333333e-01 0 0 0
  1.45833333333333e-01 -7.96875000000000e-01 2.00661855225357e-02  3.98437500000000e+00 7.29166666666667e-01 0 0 0
  1.87500000000000e-01 -7.96875000000000e-01 1.14345197692749e-02  3.98437500000000e+00 9.37500000000000e-01 0 0 0
  2.29166666666667e-01 -7.96875000000000e-01 2.61028023193461e-03  3.98437500000000e+00 1.14583333333333e+00 0 0 0
  2.70833333333333e-01 -7.96875000000000e-01 -5.48550571325148e-03  3.98437500000000e+00 1.35416666666667e+00 0 0 0
  3.12500000000000e-01 -7.96875000000000e-01 -1.20677415589778e-02  3.98437500000000e+00 1.56250000000000e+00 0 0 0
  -6.25000000000000e-02 -7.65625000000000e-01 8.65661677317642e-02  3.82812500000000e+00 -3.12500000000000e-01 0 0 0.027516776033077
  -2.08333333333333e-02 -7.65625000000000e-01 9.13687617924832e-02  3.82812500000000e+00 -1.04166666666667e-01 0 0 0.031526412228452
  2.08333333333333e-02 -7.65625000000000e-01 9.13762860254650e-02  3.82812500000000e+00 1.04166666666667e-01 0 0 0.031526412228452
  6.25000000000000e-02 -7.65625000000000e-01 8.66347721586706e-02  3.82812500000000e+00 3.12500000000000e-01 0 0 0.027516776033077
  1.04166666666667e-01 -7.65625000000000e-01 7.75868097300083e-02  3.82812500000000e+00 5.20833333333333e-01 0 0 0.020325263908215
  1.45833333333333e-01 -7.65625000000000e-01 6.50558340609922e-02  3.82812500000000e+00 7.29166666666667e-01 0 0 0.011600068373926
  1.87500000000000e-01 -7.65625000000000e-01 5.01812596510862e-02  3.82812500000000e+00 9.37500000000000e-01 0 0 0.0037803587349631
  2.29166666666667e-01 -7.65625000000000e-01 3.43087816975499e-02  3.82812500000000e+00 1.14583333333333e+00 0 0 1.8144702107822e-05
  2.70833333333333e-01 -7.65625000000000e-01 1.88387297205651e-02  3.82812500000000e+00 1.35416666666667e+00 0 0 0
  3.12500000000000e-01 -7.65625000000000e-01 5.05507180651922e-03  3.82812500000000e+00 1.56250000000000e+00 0 0 0
  -6.25000000000000e-02 -7.34375000000000e-01 1.64290510542806e-01  3.67187500000000e+00 -3.12500000000000e-01 0 0 0.10482695684633
  -2.08333333333333e-02 -7.34375000000000e-01 1.71144176083076e-01  3.67187500000000e+00 -1.04166666666667e-01 0 0 0.11251523960532
  2.08333333333333e-02 -7.34375000000000e-01 1.71108283966337e-01  3.67187500000000e+00 1.04166666666667e-01 0 0 0.11251523960532
  6.25000000000000e-02 -7.34375000000000e-01 1.64241715648721e-01  3.67187500000000e+00 3.12500000000000e-01 0 0 0.10482695684633
  1.04166666666667e-01 -7.34375000000000e-01 1.51059939547202e-01  3.67187500000000e+00 5.20833333333333e-01 0 0 0.090246115562845
  1.45833333333333e-01 -7.34375000000000e-01 1.32536393565743e-01  3.67187500000000e+00 7.29166666666667e-01 0 0 0.070390789884398
  1.87500000000000e-01 -7.34375000000000e-01 1.10057702184114e-01  3.67187500000000e+00 9.37500000000000e-01 0 0 0.047735278466011
  2.29166666666667e-01 -7.34375000000000e-01 8.53338887575001e-02  3.67187500000000e+00 1.14583333333333e+00 0 0 0.025615488675246
  2.70833333333333e-01 -7.34375000000000e-01 6.02534179546674e-02  3.67187500000000e+00 1.35416666666667e+00 0 0 0.0081598762012026
  3.12500000000000e-01 -7.34375000000000e-01 3.66845848469209e-02  3.67187500000000e+00 1.56250000000000e+00 0 0 9.9013888616658e-05
  -6.25000000000000e-02 -7.03125000000000e-01 2.66054079348848e-01  3.51562500000000e+00 -3.12500000000000e-01 0 0 0.22375222297025
  -2.08333333333333e-02 -7.03125000000000e-01 2.74982517116676e-01  3.51562500000000e+00 -1.04166666666667e-01 0 0 0.23459540717743
  2.08333333333333e-02 -7.03125000000000e-01 2.74892608267461e-01  3.51562500000000e+00 1.04166666666667e-01 0 0 0.23459540717743
  6.25000000000000e-02 -7.03125000000000e-01 2.65846608513064e-01  3.51562500000000e+00 3.12500000000000e-01 0 0 0.22375222297025
  1.04166666666667e-01 -7.03125000000000e-01 2.48370630441154e-01  3.51562500000000e+00 5.20833333333333e-01 0 0 0.2027324186104
  1.45833333333333e-01 -7.03125000000000e-01 2.23483987502701e-01  3.51562500000000e+00 7.29166666666667e-01 0 0 0.172936209915
  1.87500000000000e-01 -7.03125000000000e-01 1.92697622999076e-01  3.51562500000000e+00 9.37500000000000e-01 0 0 0.1366082714819
  2.29166666666667e-01 -7.03125000000000e-01 1.57970610260456e-01  3.51562500000000e+00 1.14583333333333e+00 0 0 0.096948110583984
  2.70833333333333e-01 -7.03125000000000e-01 1.21601020943283e-01  3.51562500000000e+00 1.35416666666667e+00 0 0 0.058160748091848
  3.12500000000000e-01 -7.03125000000000e-01 8.60343270270655e-02  3.51562500000000e+00 1.56250000000000e+00 0 0 0.02538267828612
ZONE T =  "Block Number = 2" \ 
I = 10 \ 
J = 12 \ 
F = POINT 
  -1.06250000000000e+00 -4.68750000000000e-02 1.20391347092040e-02  2.34375000000000e-01 -5.31250000000000e+00 0 0 0
  -1.02083333333333e+00 -4.68750000000000e-02 4.01304490306798e-03  2.34375000000000e-01 -5.10416666666667e+00 0 0 0
  -9.79166666666667e-01 -4.68750000000000e-02 -4.01304490306800e-03  2.34375000000000e-01 -4.89583333333333e+00 0 0 0
  -9.37500000000000e-01 -4.68750000000000e-02 -1.13588066006620e-02  2.34375000000000e-01 -4.68750000000000e+00 0 0 0
  -8.95833333333333e-01 -4.68750000000000e-02 -1.73604780660740e-02  2.34375000000000e-01 -4.47916666666667e+00 0 0 0
  -8.54166666666667e-01 -4.68750000000000e-02 -1.51540612975844e-02  2.34375000000000e-01 -4.27083333333333e+00 0 0 0
  -8.12500000000000e-01 -4.68750000000000e-02 8.02958753156674e-03  2.34375000000000e-01 -4.06250000000000e+00 0 0 0
  -7.70833333333333e-01 -4.68750000000000e-02 6.67157719817356e-02  2.34375000000000e-01 -3.85416666666667e+00 0 0 0.020952642651785
  -7.29166666666667e-01 -4.68750000000000e-02 1.71597950544877e-01  2.34375000000000e-01 -3.64583333333333e+00 0 0 0.1260830767254