TITLE = "CFFC: 2D Advection Diffusion Equation Solution, Time Step/Iteration Level = 500, Time = 2.7032871972288"
VARIABLES = "x" \ 
"y" \ 
"u" \ 
"Vx" \ 
"Vy" \ 
"k" \ 
"s" \ 
"ExactSoln" \ 
ZONE T =  "Block Number = 0" \ 
I = 27 \ 
J = 38 \ 
F = POINT 
  -9.78260869565217e-02 -2.20588235294117e-02 -7.77803499158526e-02  1.00000000000000e-01 0.00000000000000e+00 0.01 0 -0.075654690153836
  -3.26086956521740e-02 -2.20588235294117e-02 -7.21225666112864e-02  1.00000000000000e-01 0.00000000000000e+00 0.01 0 -0.071318409916175
  3.26086956521740e-02 -2.20588235294117e-02 -6.64647833067201e-02  1.00000000000000e-01 0.00000000000000e+00 0.01 0 -0.067230671127315
  9.78260869565217e-02 -2.20588235294117e-02 -6.00326034003577e-02  1.00000000000000e-01 0.00000000000000e+00 0.01 0 -0.063377228201552
  1.63043478260869e-01 -2.20588235294117e-02 -5.26903423523113e-02  1.00000000000000e-01 0.00000000000000e+00 0.01 0 -0.059744652063717
  2.28260869565217e-01 -2.20588235294117e-02 -4.45837330177441e-02  1.00000000000000e-01 0.00000000000000e+00 0.01 0 -0.056320283349456
  2.93478260869565e-01 -2.20588235294117e-02 -3.61011094141022e-02  1.00000000000000e-01 0.00000000000000e+00 0.01 0 -0.053092188287919
  3.58695652173913e-01 -2.20588235294117e-02 -2.77907096167260e-02  1.00000000000000e-01 0.00000000000000e+00 0.01 0 -0.050049117113098
  4.23913043478261e-01 -2.20588235294117e-02 -2.02216775996649e-02  1.00000000000000e-01 0.00000000000000e+00 0.01 0 -0.047180464858907
  4.89130434782609e-01 -2.20588235294117e-02 -1.38390408338957e-02  1.00000000000000e-01 0.00000000000000e+00 0.01 0 -0.044476234401346
  5.54347826086956e-01 -2.20588235294117e-02 -8.86841844169673e-03  1.00000000000000e-01 0.00000000000000e+00 0.01 0 -0.041927001618977
  6.19565217391305e-01 -2.20588235294117e-02 -5.29974369416346e-03  1.00000000000000e-01 0.00000000000000e+00 0.01 0 -0.039523882550285
  6.84782608695652e-01 -2.20588235294117e-02 -2.94138647564983e-03  1.00000000000000e-01 0.00000000000000e+00 0.01 0 -0.03725850243347
  7.50000000000000e-01 -2.20588235294117e-02 -1.50936400600044e-03  1.00000000000000e-01 0.00000000000000e+00 0.01 0 -0.035122966520782
  8.15217391304348e-01 -2.20588235294118e-02 -7.12272194368307e-04  1.00000000000000e-01 0.00000000000000e+00 0.01 0 -0.03310983256568
  8.80434782608696e-01 -2.20588235294117e-02 -3.06926352060386e-04  1.00000000000000e-01 0.00000000000000e+00 0.01 0 -0.031212084886938
  9.45652173913043e-01 -2.20588235294117e-02 -1.19545197815527e-04  1.00000000000000e-01 0.00000000000000e+00 0.01 0 -0.029423109919314
  1.01086956521739e+00 -2.20588235294117e-02 -4.14107919456887e-05  1.00000000000000e-01 0.00000000000000e+00 0.01 0 -0.027736673165579
  1.07608695652174e+00 -2.20588235294118e-02 -1.23915340968994e-05  1.00000000000000e-01 0.00000000000000e+00 0.01 0 -0.026146897469587
  1.14130434782608e+00 -2.20588235294117e-02 -3.00479049170032e-06  1.00000000000000e-01 0.00000000000000e+00 0.01 0 -0.024648242534663
  1.20652173913044e+00 -2.20588235294117e-02 -4.79548661366484e-07  1.00000000000000e-01 0.00000000000000e+00 0.01 0 -0.023235485615967
  1.27173913043478e+00 -2.20588235294117e-02 1.85850041438386e-08  1.00000000000000e-01 0.00000000000000e+00 0.01 0 -0.021903703319547
  1.33695652173913e+00 -2.20588235294117e-02 5.06325736632858e-08  1.00000000000000e-01 0.00000000000000e+00 0.01 0 -0.020648254444699
  1.40217391304348e+00 -2.20588235294117e-02 2.29123965823917e-08  1.00000000000000e-01 0.00000000000000e+00 0.01 0 -0.019464763809947
  1.46739130434783e+00 -2.20588235294117e-02 6.60625837321727e-09  1.00000000000000e-01 0.00000000000000e+00 0.01 0 -0.018349107006441
  1.53260869565217e+00 -2.20588235294118e-02 1.19144932981223e-09  1.00000000000000e-01 0.00000000000000e+00 0.01 0 -0.017297396026026
  1.59782608695652e+00 -2.20588235294118e-02 2.14034067083719e-11  1.00000000000000e-01 0.00000000000000e+00 0.01 0 -0.016305965714663
  -9.78260869565217e-02 -7.35294117647056e-03 -2.59267833052841e-02  1.00000000000000e-01 0.00000000000000e+00 0.01 0 -0.025236181812536
  -3.26086956521739e-02 -7.35294117647056e-03 -2.40408555370954e-02  1.00000000000000e-01 0.00000000000000e+00 0.01 0 -0.023789726130209
  3.26086956521739e-02 -7.35294117647056e-03 -2.21549277689066e-02  1.00000000000000e-01 0.00000000000000e+00 0.01 0 -0.022426176572765
  9.78260869565217e-02 -7.35294117647056e-03 -2.00108678001192e-02  1.00000000000000e-01 0.00000000000000e+00 0.01 0 -0.021140781231365
  1.63043478260869e-01 -7.35294117647056e-03 -1.75634474507704e-02  1.00000000000000e-01 0.00000000000000e+00 0.01 0 -0.019929060561095
  2.28260869565217e-01 -7.35294117647056e-03 -1.48612443392480e-02  1.00000000000000e-01 0.00000000000000e+00 0.01 0 -0.018786791769953
  2.93478260869565e-01 -7.35294117647056e-03 -1.20337031380341e-02  1.00000000000000e-01 0.00000000000000e+00 0.01 0 -0.017709994102611
  3.58695652173913e-01 -7.35294117647056e-03 -9.26356987224198e-03  1.00000000000000e-01 0.00000000000000e+00 0.01 0 -0.016694914967661
  4.23913043478261e-01 -7.35294117647056e-03 -6.74055919988829e-03  1.00000000000000e-01 0.00000000000000e+00 0.01 0 -0.015738016860003
  4.89130434782609e-01 -7.35294117647056e-03 -4.61301361129856e-03  1.00000000000000e-01 0.00000000000000e+00 0.01 0 -0.014835965032796
  5.54347826086957e-01 -7.35294117647056e-03 -2.95613948056557e-03  1.00000000000000e-01 0.00000000000000e+00 0.01 0 -0.013985615876022
  6.19565217391304e-01 -7.35294117647056e-03 -1.76658123138782e-03  1.00000000000000e-01 0.00000000000000e+00 0.01 0 -0.013184005961139
  6.84782608695652e-01 -7.35294117647056e-03 -9.80462158549939e-04  1.00000000000000e-01 0.00000000000000e+00 0.01 0 -0.012428341713672
  7.50000000000000e-01 -7.35294117647056e-03 -5.03121335333478e-04  1.00000000000000e-01 0.00000000000000e+00 0.01 0 -0.011715989677728
  8.15217391304347e-01 -7.35294117647056e-03 -2.37424064789435e-04  1.00000000000000e-01 0.00000000000000e+00 0.01 0 -0.011044467338523
  8.80434782608696e-01 -7.35294117647056e-03 -1.02308784020128e-04  1.00000000000000e-01 0.00000000000000e+00 0.01 0 -0.010411434470928
  9.45652173913044e-01 -7.35294117647056e-03 -3.98483992718423e-05  1.00000000000000e-01 0.00000000000000e+00 0.01 0 -0.0098146849838942
  1.01086956521739e+00 -7.35294117647056e-03 -1.38035973152295e-05  1.00000000000000e-01 0.00000000000000e+00 0.01 0 -0.0092521392323217
  1.07608695652174e+00 -7.35294117647056e-03 -4.13051136563312e-06  1.00000000000000e-01 0.00000000000000e+00 0.01 0 -0.0087218367695974
  1.14130434782609e+00 -7.35294117647056e-03 -1.00159683056677e-06  1.00000000000000e-01 0.00000000000000e+00 0.01 0 -0.0082219295155317
  1.20652173913043e+00 -7.35294117647057e-03 -1.59849553788828e-07  1.00000000000000e-01 0.00000000000000e+00 0.01 0 -0.0077506753158963
  1.27173913043478e+00 -7.35294117647056e-03 6.19500138127953e-09  1.00000000000000e-01 0.00000000000000e+00 0.01 0 -0.0073064318711232
  1.33695652173913e+00 -7.35294117647056e-03 1.68775245544286e-08  1.00000000000000e-01 0.00000000000000e+00 0.01 0 -0.0068876510130221
  1.40217391304348e+00 -7.35294117647056e-03 7.63746552746388e-09  1.00000000000000e-01 0.00000000000000e+00 0.01 0 -0.0064928733096
  1.46739130434783e+00 -7.35294117647057e-03 2.20208612440575e-09  1.00000000000000e-01 0.00000000000000e+00 0.01 0 -0.0061207229792446
  1.53260869565217e+00 -7.35294117647058e-03 3.97149776604076e-10  1.00000000000000e-01 0.00000000000000e+00 0.01 0 -0.0057699030966699
  1.59782608695652e+00 -7.35294117647059e-03 7.13446890279064e-12  1.00000000000000e-01 0.00000000000000e+00 0.01 0 -0.005439191074175
  -9.78260869565217e-02 7.35294117647059e-03 2.59267833052842e-02  1.00000000000000e-01 0.00000000000000e+00 0.01 0 0.025236181812536
  -3.26086956521739e-02 7.35294117647059e-03 2.40408555370955e-02  1.00000000000000e-01 0.00000000000000e+00 0.01 0 0.023789726130209
  3.26086956521739e-02 7.35294117647059e-03 2.21549277689067e-02  1.00000000000000e-01 0.00000000000000e+00 0.01 0 0.022426176572765
  9.78260869565217e-02 7.35294117647059e-03 2.00108678001193e-02  1.00000000000000e-01 0.00000000000000e+00 0.01 0 0.021140781231365
  1.63043478260870e-01 7.35294117647059e-03 1.75634474507705e-02  1.00000000000000e-01 0.00000000000000e+00 0.01 0 0.019929060561095
  2.28260869565217e-01 7.35294117647059e-03 1.48612443392480e-02  1.00000000000000e-01 0.00000000000000e+00 0.01 0 0.018786791769953
  2.93478260869565e-01 7.35294117647059e-03 1.20337031380341e-02  1.00000000000000e-01 0.00000000000000e+00 0.01 0 0.017709994102611
  3.58695652173913e-01 7.35294117647059e-03 9.26356987224202e-03  1.00000000000000e-01 0.00000000000000e+00 0.01 0 0.016694914967661
  4.23913043478261e-01 7.35294117647059e-03 6.74055919988832e-03  1.00000000000000e-01 0.00000000000000e+00 0.01 0 0.015738016860003
  4.89130434782609e-01 7.35294117647059e-03 4.61301361129858e-03  1.00000000000000e-01 0.00000000000000e+00 0.01 0 0.014835965032796
  5.54347826086956e-01 7.35294117647059e-03 2.95613948056558e-03  1.00000000000000e-01 0.00000000000000e+00 0.01 0 0.013985615876022
  6.19565217391305e-01 7.35294117647059e-03 1.76658123138782e-03  1.00000000000000e-01 0.00000000000000e+00 0.01 0 0.013184005961139
  6.84782608695652e-01 7.35294117647059e-03 9.80462158549944e-04  1.00000000000000e-01 0.00000000000000e+00 0.01 0 0.012428341713672
  7.49999999999999e-01 7.35294117647059e-03 5.03121335333480e-04  1.00000000000000e-01 0.00000000000000e+00 0.01 0 0.011715989677728
  8.15217391304349e-01 7.35294117647060e-03 2.37424064789436e-04  1.00000000000000e-01 0.00000000000000e+00 0.01 0 0.011044467338523
  8.80434782608695e-01 7.35294117647059e-03 1.02308784020129e-04  1.00000000000000e-01 0.00000000000000e+00 0.01 0 0.010411434470928
  9.45652173913044e-01 7.35294117647059e-03 3.98483992718425e-05  1.00000000000000e-01 0.00000000000000e+00 0.01 0 0.0098146849838943
  1.01086956521739e+00 7.35294117647059e-03 1.38035973152296e-05  1.00000000000000e-01 0.00000000000000e+00 0.01 0 0.0092521392323217
  1.07608695652174e+00 7.35294117647059e-03 4.13051136563313e-06  1.00000000000000e-01 0.00000000000000e+00 0.01 0 0.0087218367695974
  1.14130434782609e+00 7.35294117647059e-03 1.00159683056678e-06  1.00000000000000e-01 0.00000000000000e+00 0.01 0 0.0082219295155317
  1.20652173913043e+00 7.35294117647059e-03 1.59849553788828e-07  1.00000000000000e-01 0.00000000000000e+00 0.01 0 0.0077506753158963
  1.27173913043478e+00 7.35294117647059e-03 -6.19500138127955e-09  1.00000000000000e-01 0.00000000000000e+00 0.01 0 0.0073064318711232
  1.33695652173913e+00 7.35294117647060e-03 -1.68775245544286e-08  1.00000000000000e-01 0.00000000000000e+00 0.01 0 0.0068876510130221
  1.40217391304348e+00 7.35294117647059e-03 -7.63746552746391e-09  1.00000000000000e-01 0.00000000000000e+00 0.01 0 0.0064928733096001
  1.46739130434783e+00 7.35294117647059e-03 -2.20208612440576e-09  1.00000000000000e-01 0.00000000000000e+00 0.01 0 0.0061207229792447
  1.53260869565217e+00 7.35294117647059e-03 -3.97149776604077e-10  1.00000000000000e-01 0.00000000000000e+00 0.01 0 0.0057699030966699
  1.59782608695652e+00 7.35294117647059e-03 -7.13446890279064e-12  1.00000000000000e-01 0.00000000000000e+00 0.01 0 0.005439191074175
  -9.78260869565218e-02 2.20588235294118e-02 7.77250208536924e-02  1.00000000000000e-01 0.00000000000000e+00 0.01 0 0.075654690153836
  -3.26086956521739e-02 2.20588235294118e-02 7.20712622140253e-02  1.00000000000000e-01 0.00000000000000e+00 0.01 0 0.071318409916175
  3.26086956521739e-02 2.20588235294118e-02 6.64175035743581e-02  1.00000000000000e-01 0.00000000000000e+00 0.01 0 0.067230671127316
  9.78260869565218e-02 2.20588235294118e-02 5.99898992000196e-02  1.00000000000000e-01 0.00000000000000e+00 0.01 0 0.063377228201552
  1.63043478260870e-01 2.20588235294118e-02 5.26528610703370e-02  1.00000000000000e-01 0.00000000000000e+00 0.01 0 0.059744652063717
  2.28260869565217e-01 2.20588235294118e-02 4.45520183733880e-02  1.00000000000000e-01 0.00000000000000e+00 0.01 0 0.056320283349456
  2.93478260869565e-01 2.20588235294118e-02 3.60754288851642e-02  1.00000000000000e-01 0.00000000000000e+00 0.01 0 0.053092188287919
  3.58695652173913e-01 2.20588235294118e-02 2.77709406917787e-02  1.00000000000000e-01 0.00000000000000e+00 0.01 0 0.050049117113099
  4.23913043478261e-01 2.20588235294118e-02 2.02072929066402e-02  1.00000000000000e-01 0.00000000000000e+00 0.01 0 0.047180464858907
  4.89130434782609e-01 2.20588235294118e-02 1.38291964303752e-02  1.00000000000000e-01 0.00000000000000e+00 0.01 0 0.044476234401346
  5.54347826086956e-01 2.20588235294118e-02 8.86210989106980e-03  1.00000000000000e-01 0.00000000000000e+00 0.01 0 0.041927001618977
  6.19565217391305e-01 2.20588235294118e-02 5.29597372078837e-03  1.00000000000000e-01 0.00000000000000e+00 0.01 0 0.039523882550285
  6.84782608695652e-01 2.20588235294118e-02 2.93929411999284e-03  1.00000000000000e-01 0.00000000000000e+00 0.01 0 0.03725850243347
  7.50000000000000e-01 2.20588235294118e-02 1.50829031971591e-03  1.00000000000000e-01 0.00000000000000e+00 0.01 0 0.035122966520782
  8.15217391304348e-01 2.20588235294118e-02 7.11765519449005e-04  1.00000000000000e-01 0.00000000000000e+00 0.01 0 0.03310983256568
  8.80434782608696e-01 2.20588235294118e-02 3.06708019959408e-04  1.00000000000000e-01 0.00000000000000e+00 0.01 0 0.031212084886938
  9.45652173913044e-01 2.20588235294118e-02 1.19460159323311e-04  1.00000000000000e-01 0.00000000000000e+00 0.01 0 0.029423109919314
  1.01086956521739e+00 2.20588235294118e-02 4.13813343733824e-05  1.00000000000000e-01 0.00000000000000e+00 0.01 0 0.02773667316558
  1.07608695652174e+00 2.20588235294118e-02 1.23827193774869e-05  1.00000000000000e-01 0.00000000000000e+00 0.01 0 0.026146897469587
  1.14130434782609e+00 2.20588235294118e-02 3.00265303358817e-06  1.00000000000000e-01 0.00000000000000e+00 0.01 0 0.024648242534663
  1.20652173913043e+00 2.20588235294118e-02 4.79207534363037e-07  1.00000000000000e-01 0.00000000000000e+00 0.01 0 0.023235485615968
  1.27173913043478e+00 2.20588235294118e-02 -1.85717836986910e-08  1.00000000000000e-01 0.00000000000000e+00 0.01 0 0.021903703319547
  1.33695652173913e+00 2.20588235294118e-02 -5.05965561753396e-08  1.00000000000000e-01 0.00000000000000e+00 0.01 0 0.0206482544447
  1.40217391304348e+00 2.20588235294118e-02 -2.28960978460642e-08  1.00000000000000e-01 0.00000000000000e+00 0.01 0 0.019464763809947
  1.46739130434783e+00 2.20588235294118e-02 -6.60155901045307e-09  1.00000000000000e-01 0.00000000000000e+00 0.01 0 0.018349107006441
  1.53260869565217e+00 2.20588235294118e-02 -1.19060179217449e-09  1.00000000000000e-01 0.00000000000000e+00 0.01 0 0.017297396026026
  1.59782608695652e+00 2.20588235294118e-02 -2.13881813921947e-11  1.00000000000000e-01 0.00000000000000e+00 0.01 0 0.016305965714663
  -9.78260869565218e-02 3.67647058823529e-02 1.29357389290627e-01  1.00000000000000e-01 0.00000000000000e+00 0.01 0 0.12591174757371
  -3.26086956521739e-02 3.67647058823529e-02 1.19947865185341e-01  1.00000000000000e-01 0.00000000000000e+00 0.01 0 0.11869489662127
  3.26086956521739e-02 3.67647058823529e-02 1.10538341080055e-01  1.00000000000000e-01 0.00000000000000e+00 0.01 0 0.11189169204157
  9.78260869565218e-02 3.67647058823529e-02 9.98409091318208e-02  1.00000000000000e-01 0.00000000000000e+00 0.01 0 0.10547842497285
  1.63043478260870e-01 3.67647058823529e-02 8.76299108309251e-02  1.00000000000000e-01 0.00000000000000e+00 0.01 0 0.099432745467988
  2.28260869565217e-01 3.67647058823529e-02 7.41477161551088e-02  1.00000000000000e-01 0.00000000000000e+00 0.01 0 0.093733584606017
  2.93478260869565e-01 3.67647058823530e-02 6.00401678490229e-02  1.00000000000000e-01 0.00000000000000e+00 0.01 0 0.088361081067826
  3.58695652173913e-01 3.67647058823530e-02 4.62190469243555e-02  1.00000000000000e-01 0.00000000000000e+00 0.01 0 0.083296511920378
  4.23913043478261e-01 3.67647058823529e-02 3.36309032319777e-02  1.00000000000000e-01 0.00000000000000e+00 0.01 0 0.078522227368132
  4.89130434782609e-01 3.67647058823530e-02 2.30158670473436e-02  1.00000000000000e-01 0.00000000000000e+00 0.01 0 0.074021589244293
  5.54347826086957e-01 3.67647058823530e-02 1.47491681124582e-02  1.00000000000000e-01 0.00000000000000e+00 0.01 0 0.069778913027556
  6.19565217391304e-01 3.67647058823529e-02 8.81406433537683e-03  1.00000000000000e-01 0.00000000000000e+00 0.01 0 0.065779413182252
  6.84782608695652e-01 3.67647058823529e-02 4.89185347965722e-03  1.00000000000000e-01 0.00000000000000e+00 0.01 0 0.062009151631423
  7.50000000000001e-01 3.67647058823530e-02 2.51024053654537e-03  1.00000000000000e-01 0.00000000000000e+00 0.01 0 0.05845498918325
  8.15217391304347e-01 3.67647058823530e-02 1.18458803062047e-03  1.00000000000000e-01 0.00000000000000e+00 0.01 0 0.055104539741564
  8.80434782608695e-01 3.67647058823529e-02 5.10452725527470e-04  1.00000000000000e-01 0.00000000000000e+00 0.01 0 0.051946127140857
  9.45652173913045e-01 3.67647058823530e-02 1.98816985374556e-04  1.00000000000000e-01 0.00000000000000e+00 0.01 0 0.04896874445538
  1.01086956521739e+00 3.67647058823529e-02 6.88707615785607e-05  1.00000000000000e-01 0.00000000000000e+00 0.01 0 0.046162015640505
  1.07608695652174e+00 3.67647058823529e-02 2.06085020421593e-05  1.00000000000000e-01 0.00000000000000e+00 0.01 0 0.043516159372696
  1.14130434782609e+00 3.67647058823531e-02 4.99730142371617e-06  1.00000000000000e-01 0.00000000000000e+00 0.01 0 0.04102195496207
  1.20652173913044e+00 3.67647058823530e-02 7.97542861909115e-07  1.00000000000000e-01 0.00000000000000e+00 0.01 0 0.038670710218776
  1.27173913043478e+00 3.67647058823529e-02 -3.09089328937539e-08  1.00000000000000e-01 0.00000000000000e+00 0.01 0 0.036454231161245
  1.33695652173913e+00 3.67647058823529e-02 -8.42076121955460e-08  1.00000000000000e-01 0.00000000000000e+00 0.01 0 0.034364793460818
  1.40217391304348e+00 3.67647058823529e-02 -3.81058687380073e-08  1.00000000000000e-01 0.00000000000000e+00 0.01 0 0.032395115523393
  1.46739130434783e+00 3.67647058823530e-02 -1.09869438368845e-08  1.00000000000000e-01 0.00000000000000e+00 0.01 0 0.030538333114577
  1.53260869565217e+00 3.67647058823529e-02 -1.98151300351971e-09  1.00000000000000e-01 0.00000000000000e+00 0.01 0 0.028787975440555
  1.59782608695652e+00 3.67647058823529e-02 -3.55962504246841e-11  1.00000000000000e-01 0.00000000000000e+00 0.01 0 0.027137942602573
  -9.78260869565217e-02 5.14705882352941e-02 1.80713702539816e-01  1.00000000000000e-01 0.00000000000000e+00 0.01 0 0.17590010297891
  -3.26086956521739e-02 5.14705882352941e-02 1.67568493367547e-01  1.00000000000000e-01 0.00000000000000e+00 0.01 0 0.16581808243532
  3.26086956521739e-02 5.14705882352941e-02 1.54423284195279e-01  1.00000000000000e-01 0.00000000000000e+00 0.01 0 0.1563139304462
  9.78260869565217e-02 5.14705882352941e-02 1.39478853532027e-01  1.00000000000000e-01 0.00000000000000e+00 0.01 0 0.14735452546964
  1.63043478260870e-01 5.14705882352941e-02 1.22419953945668e-01  1.00000000000000e-01 0.00000000000000e+00 0.01 0 0.13890864438249
  2.28260869565218e-01 5.14705882352941e-02 1.03585178973862e-01  1.00000000000000e-01 0.00000000000000e+00 0.01 0 0.1309468536693
  2.93478260869565e-01 5.14705882352941e-02 8.38767780689522e-02  1.00000000000000e-01 0.00000000000000e+00 0.01 0 0.12344140684775
  3.58695652173913e-01 5.14705882352941e-02 6.45685193815752e-02  1.00000000000000e-01 0.00000000000000e+00 0.01 0 0.11636614777347
  4.23913043478261e-01 5.14705882352942e-02 4.69827435149800e-02  1.00000000000000e-01 0.00000000000000e+00 0.01 0 0.109696419487
  4.89130434782609e-01 5.14705882352941e-02 3.21534206441424e-02  1.00000000000000e-01 0.00000000000000e+00 0.01 0 0.10340897828546
  5.54347826086956e-01 5.14705882352940e-02 2.06047508658066e-02  1.00000000000000e-01 0.00000000000000e+00 0.01 0 0.097481912719208
  6.19565217391305e-01 5.14705882352942e-02 1.23133452924865e-02  1.00000000000000e-01 0.00000000000000e+00 0.01 0 0.091894567231519
  6.84782608695653e-01 5.14705882352941e-02 6.83397337746975e-03  1.00000000000000e-01 0.00000000000000e+00 0.01 0 0.086627470174828
  7.49999999999999e-01 5.14705882352941e-02 3.50683377356570e-03  1.00000000000000e-01 0.00000000000000e+00 0.01 0 0.081662265952947
  8.15217391304348e-01 5.14705882352941e-02 1.65488257123695e-03  1.00000000000000e-01 0.00000000000000e+00 0.01 0 0.076981651052631
  8.80434782608697e-01 5.14705882352942e-02 7.13108099254841e-04  1.00000000000000e-01 0.00000000000000e+00 0.01 0 0.07256931374162
  9.45652173913042e-01 5.14705882352941e-02 2.77749525959593e-04  1.00000000000000e-01 0.00000000000000e+00 0.01 0 0.068409877222986
  1.01086956521739e+00 5.14705882352942e-02 9.62132151077669e-05  1.00000000000000e-01 0.00000000000000e+00 0.01 0 0.064488846047708
  1.07608695652174e+00 5.14705882352942e-02 2.87903051249003e-05  1.00000000000000e-01 0.00000000000000e+00 0.01 0 0.060792555598697
  1.14130434782608e+00 5.14705882352940e-02 6.98128532076683e-06  1.00000000000000e-01 0.00000000000000e+00 0.01 0 0.057308124470277
  1.20652173913043e+00 5.14705882352940e-02 1.11417619279568e-06  1.00000000000000e-01 0.00000000000000e+00 0.01 0 0.054023409577157
  1.27173913043479e+00 5.14705882352942e-02 -4.31801208683910e-08  1.00000000000000e-01 0.00000000000000e+00 0.01 0 0.050926963836523
  1.33695652173913e+00 5.14705882352940e-02 -1.17638964927663e-07  1.00000000000000e-01 0.00000000000000e+00 0.01 0 0.048007996275868
  1.40217391304348e+00 5.14705882352942e-02 -5.32343197857045e-08  1.00000000000000e-01 0.00000000000000e+00 0.01 0 0.045256334427751
  1.46739130434782e+00 5.14705882352940e-02 -1.53488819714796e-08  1.00000000000000e-01 0.00000000000000e+00 0.01 0 0.04266238888086
  1.53260869565217e+00 5.14705882352941e-02 -2.76819556625661e-09  1.00000000000000e-01 0.00000000000000e+00 0.01 0 0.040217119864718
  1.59782608695652e+00 5.14705882352941e-02 -4.97283552647211e-11  1.00000000000000e-01 0.00000000000000e+00 0.01 0 0.037912005753346
  -9.78260869565218e-02 6.61764705882353e-02 2.31684363640672e-01  1.00000000000000e-01 0.00000000000000e+00 0.01 0 0.22551307869982
  -3.26086956521739e-02 6.61764705882353e-02 2.14831521940250e-01  1.00000000000000e-01 0.00000000000000e+00 0.01 0 0.212587404105
  3.26086956521739e-02 6.61764705882353e-02 1.97978680239829e-01  1.00000000000000e-01 0.00000000000000e+00 0.01 0 0.20040258704578
  9.78260869565218e-02 6.61764705882353e-02 1.78819143029723e-01  1.00000000000000e-01 0.00000000000000e+00 0.01 0 0.1889161639831
  1.63043478260870e-01 6.61764705882353e-02 1.56948746709307e-01  1.00000000000000e-01 0.00000000000000e+00 0.01 0 0.17808810524955
  2.28260869565217e-01 6.61764705882353e-02 1.32801585800483e-01  1.00000000000000e-01 0.00000000000000e+00 0.01 0 0.16788067554775
  2.93478260869565e-01 6.61764705882353e-02 1.07534391017491e-01  1.00000000000000e-01 0.00000000000000e+00 0.01 0 0.15825830244461
  3.58695652173913e-01 6.61764705882354e-02 8.27801993644873e-02  1.00000000000000e-01 0.00000000000000e+00 0.01 0 0.14918745240291
  4.23913043478261e-01 6.61764705882352e-02 6.02343202556142e-02  1.00000000000000e-01 0.00000000000000e+00 0.01 0 0.14063651391851
  4.89130434782608e-01 6.61764705882353e-02 4.12223572209070e-02  1.00000000000000e-01 0.00000000000000e+00 0.01 0 0.13257568735563
  5.54347826086957e-01 6.61764705882354e-02 2.64163620424254e-02  1.00000000000000e-01 0.00000000000000e+00 0.01 0 0.12497688109649
  6.19565217391303e-01 6.61764705882352e-02 1.57863489502080e-02  1.00000000000000e-01 0.00000000000000e+00 0.01 0 0.11781361364326
  6.84782608695652e-01 6.61764705882353e-02 8.76150923169498e-03  1.00000000000000e-01 0.00000000000000e+00 0.01 0 0.11106092133127
  7.50000000000002e-01 6.61764705882355e-02 4.49594325058527e-03  1.00000000000000e-01 0.00000000000000e+00 0.01 0 0.10469527133171
  8.15217391304347e-01 6.61764705882352e-02 2.12164550904822e-03  1.00000000000000e-01 0.00000000000000e+00 0.01 0 0.098694479640842
  8.80434782608695e-01 6.61764705882353e-02 9.14241664361174e-04  1.00000000000000e-01 0.00000000000000e+00 0.01 0 0.093037633769708
  9.45652173913042e-01 6.61764705882353e-02 3.56089335058963e-04  1.00000000000000e-01 0.00000000000000e+00 0.01 0 0.087705019865066
  1.01086956521739e+00 6.61764705882353e-02 1.23350344787251e-04  1.00000000000000e-01 0.00000000000000e+00 0.01 0 0.082678054007512
  1.07608695652174e+00 6.61764705882354e-02 3.69106682456126e-05  1.00000000000000e-01 0.00000000000000e+00 0.01 0 0.077939217447393
  1.14130434782609e+00 6.61764705882353e-02 8.95037080311769e-06  1.00000000000000e-01 0.00000000000000e+00 0.01 0 0.073471995552807
  1.20652173913044e+00 6.61764705882355e-02 1.42843181553709e-06  1.00000000000000e-01 0.00000000000000e+00 0.01 0 0.069260820256978
  1.27173913043478e+00 6.61764705882349e-02 -5.53591602889093e-08  1.00000000000000e-01 0.00000000000000e+00 0.01 0 0.065291015804498
  1.33695652173913e+00 6.61764705882355e-02 -1.50819270180179e-07  1.00000000000000e-01 0.00000000000000e+00 0.01 0 0.061548747607491
  1.40217391304347e+00 6.61764705882351e-02 -6.82491661122307e-08  1.00000000000000e-01 0.00000000000000e+00 0.01 0 0.058020974033736
  1.46739130434783e+00 6.61764705882355e-02 -1.96780648184329e-08  1.00000000000000e-01 0.00000000000000e+00 0.01 0 0.054695400959289
  1.53260869565217e+00 6.61764705882353e-02 -3.54897066015006e-09  1.00000000000000e-01 0.00000000000000e+00 0.01 0 0.051560438928336
  1.59782608695652e+00 6.61764705882353e-02 -6.37543372890755e-11  1.00000000000000e-01 0.00000000000000e+00 0.01 0 0.048605162773255
  -9.78260869565218e-02 8.08823529411765e-02 2.82160598633727e-01  1.00000000000000e-01 0.00000000000000e+00 0.01 0 0.27464479814599
  -3.26086956521739e-02 8.08823529411765e-02 2.61636089218644e-01  1.00000000000000e-01 0.00000000000000e+00 0.01 0 0.25890305354093
  3.26086956521739e-02 8.08823529411765e-02 2.41111579803561e-01  1.00000000000000e-01 0.00000000000000e+00 0.01 0 0.24406357442527
  9.78260869565218e-02 8.08823529411765e-02 2.17777823464557e-01  1.00000000000000e-01 0.00000000000000e+00 0.01 0 0.23007464588215
  1.63043478260870e-01 8.08823529411765e-02 1.91142602937995e-01  1.00000000000000e-01 0.00000000000000e+00 0.01 0 0.2168875171252
  2.28260869565217e-01 8.08823529411765e-02 1.61734587350435e-01  1.00000000000000e-01 0.00000000000000e+00 0.01 0 0.2044562316042
  2.93478260869565e-01 8.08823529411765e-02 1.30962520156375e-01  1.00000000000000e-01 0.00000000000000e+00 0.01 0 0.19273746684858
  3.58695652173913e-01 8.08823529411765e-02 1.00815222230227e-01  1.00000000000000e-01 0.00000000000000e+00 0.01 0 0.18169038349059
  4.23913043478261e-01 8.08823529411765e-02 7.33573539212990e-02  1.00000000000000e-01 0.00000000000000e+00 0.01 0 0.17127648294191
  4.89130434782609e-01 8.08823529411765e-02 5.02033232099505e-02  1.00000000000000e-01 0.00000000000000e+00 0.01 0 0.16145947322781
  5.54347826086956e-01 8.08823529411765e-02 3.21715993711868e-02  1.00000000000000e-01 0.00000000000000e+00 0.01 0 0.15220514251127
  6.19565217391305e-01 8.08823529411765e-02 1.92256637437124e-02  1.00000000000000e-01 0.00000000000000e+00 0.01 0 0.14348123986624
  6.84782608695652e-01 8.08823529411764e-02 1.06703475836813e-02  1.00000000000000e-01 0.00000000000000e+00 0.01 0 0.13525736288464
  7.49999999999999e-01 8.08823529411764e-02 5.47545815813420e-03  1.00000000000000e-01 0.00000000000000e+00 0.01 0 0.1275048517253
  8.15217391304349e-01 8.08823529411765e-02 2.58388074842225e-03  1.00000000000000e-01 0.00000000000000e+00 0.01 0 0.12019668923577
  8.80434782608695e-01 8.08823529411764e-02 1.11342419168230e-03  1.00000000000000e-01 0.00000000000000e+00 0.01 0 0.11330740679868
  9.45652173913048e-01 8.08823529411768e-02 4.33669231572068e-04  1.00000000000000e-01 0.00000000000000e+00 0.01 0 0.10681299557484
  1.01086956521739e+00 8.08823529411764e-02 1.50224238614683e-04  1.00000000000000e-01 0.00000000000000e+00 0.01 0 0.10069082283348
  1.07608695652174e+00 8.08823529411761e-02 4.49522621401714e-05  1.00000000000000e-01 0.00000000000000e+00 0.01 0 0.09491955307829
  1.14130434782609e+00 8.08823529411768e-02 1.09003557431178e-05  1.00000000000000e-01 0.00000000000000e+00 0.01 0 0.089479073694186
  1.20652173913043e+00 8.08823529411764e-02 1.73963909279876e-06  1.00000000000000e-01 0.00000000000000e+00 0.01 0 0.084350424855953
  1.27173913043479e+00 8.08823529411768e-02 -6.74200604717517e-08  1.00000000000000e-01 0.00000000000000e+00 0.01 0 0.079515733454388
  1.33695652173913e+00 8.08823529411763e-02 -1.83677719509556e-07  1.00000000000000e-01 0.00000000000000e+00 0.01 0 0.074958150809954
  1.40217391304348e+00 8.08823529411767e-02 -8.31183652788281e-08  1.00000000000000e-01 0.00000000000000e+00 0.01 0 0.070661793957151
  1.46739130434782e+00 8.08823529411763e-02 -2.39652536833888e-08  1.00000000000000e-01 0.00000000000000e+00 0.01 0 0.066611690295683
  1.53260869565217e+00 8.08823529411765e-02 -4.32217207180706e-09  1.00000000000000e-01 0.00000000000000e+00 0.01 0 0.062793725416881
  1.59782608695652e+00 8.08823529411765e-02 -7.76442643438637e-11  1.00000000000000e-01 0.00000000000000e+00 0.01 0 0.059194593926337
  -9.78260869565216e-02 9.55882352941176e-02 3.32034688689741e-01  1.00000000000000e-01 0.00000000000000e+00 0.01 0 0.32319041175213
  -3.26086956521739e-02 9.55882352941176e-02 3.07882311897427e-01  1.00000000000000e-01 0.00000000000000e+00 0.01 0 0.30466619081312
  3.26086956521739e-02 9.55882352941176e-02 2.83729935105114e-01  1.00000000000000e-01 0.00000000000000e+00 0.01 0 0.28720371783728
  9.78260869565217e-02 9.55882352941177e-02 2.56271755049149e-01  1.00000000000000e-01 0.00000000000000e+00 0.01 0 0.27074213689222
  1.63043478260869e-01 9.55882352941176e-02 2.24928551219334e-01  1.00000000000000e-01 0.00000000000000e+00 0.01 0 0.25522408010921
  2.28260869565217e-01 9.55882352941177e-02 1.90322439140327e-01  1.00000000000000e-01 0.00000000000000e+00 0.01 0 0.24059546775878