TITLE = "CFFC: 2D Advection Diffusion Equation Solution, Time Step/Iteration Level = 667, Time = 2"
VARIABLES = "x" \ 
"y" \ 
"u" \ 
"Vx" \ 
"Vy" \ 
"k" \ 
"s" \ 
"ExactSoln" \ 
ZONE T =  "Block Number = 0" \ 
I = 101 \ 
J = 3 \ 
F = POINT 
  -1.00000000000000e+02 -5.00000000000000e+01 -2.28975980872423e-01  2.00000000000000e+02 0.00000000000000e+00 0 0 6.0617555078669e-16
  -9.90000000000000e+01 -5.00000000000000e+01 -8.80786016947018e-02  2.00000000000000e+02 0.00000000000000e+00 0 0 0.15413707914889
  -9.80000000000000e+01 -5.00000000000000e+01 5.64242166907554e-02  2.00000000000000e+02 0.00000000000000e+00 0 0 0.30275906760081
  -9.70000000000000e+01 -5.00000000000000e+01 2.00501941947997e-01  2.00000000000000e+02 0.00000000000000e+00 0 0 0.44186989363959
  -9.60000000000000e+01 -5.00000000000000e+01 3.40097527144513e-01  2.00000000000000e+02 0.00000000000000e+00 0 0 0.56778839384715
  -9.50000000000000e+01 -5.00000000000000e+01 4.71258081349501e-01  2.00000000000000e+02 0.00000000000000e+00 0 0 0.67725785060772
  -9.40000000000000e+01 -5.00000000000000e+01 5.90264262076989e-01  2.00000000000000e+02 0.00000000000000e+00 0 0 0.76754129717212
  -9.30000000000000e+01 -5.00000000000000e+01 6.93753840094706e-01  2.00000000000000e+02 0.00000000000000e+00 0 0 0.83649956028168
  -9.20000000000000e+01 -5.00000000000000e+01 7.78834883854967e-01  2.00000000000000e+02 0.00000000000000e+00 0 0 0.88264959864029
  -9.10000000000000e+01 -5.00000000000000e+01 8.43184168406060e-01  2.00000000000000e+02 0.00000000000000e+00 0 0 0.90520136447709
  -9.00000000000000e+01 -5.00000000000000e+01 8.85126752002224e-01  2.00000000000000e+02 0.00000000000000e+00 0 0 0.90407214201706
  -8.90000000000000e+01 -5.00000000000000e+01 9.03693198787265e-01  2.00000000000000e+02 0.00000000000000e+00 0 0 0.87987807588654
  -8.80000000000000e+01 -5.00000000000000e+01 8.98651665775196e-01  2.00000000000000e+02 0.00000000000000e+00 0 0 0.83390336826365
  -8.70000000000000e+01 -5.00000000000000e+01 8.70513011787615e-01  2.00000000000000e+02 0.00000000000000e+00 0 0 0.76804836970308
  -8.60000000000000e+01 -5.00000000000000e+01 8.20508202314900e-01  2.00000000000000e+02 0.00000000000000e+00 0 0 0.68475848951917
  -8.50000000000000e+01 -5.00000000000000e+01 7.50538533750935e-01  2.00000000000000e+02 0.00000000000000e+00 0 0 0.58693648351269
  -8.40000000000000e+01 -5.00000000000000e+01 6.63100517402111e-01  2.00000000000000e+02 0.00000000000000e+00 0 0 0.47784121822844
  -8.30000000000000e+01 -5.00000000000000e+01 5.61188562612931e-01  2.00000000000000e+02 0.00000000000000e+00 0 0 0.36097644356272
  -8.20000000000000e+01 -5.00000000000000e+01 4.48179780088900e-01  2.00000000000000e+02 0.00000000000000e+00 0 0 0.23997341493836
  -8.10000000000000e+01 -5.00000000000000e+01 3.27706187912647e-01  2.00000000000000e+02 0.00000000000000e+00 0 0 0.11847138226643
  -8.00000000000000e+01 -5.00000000000000e+01 2.03520249462690e-01  2.00000000000000e+02 0.00000000000000e+00 0 0 -3.612068117282e-16
  -7.90000000000000e+01 -5.00000000000000e+01 7.93599327166908e-02  2.00000000000000e+02 0.00000000000000e+00 0 0 -0.11213238993689
  -7.80000000000000e+01 -5.00000000000000e+01 -4.11806819926937e-02  2.00000000000000e+02 0.00000000000000e+00 0 0 -0.21494088854101
  -7.70000000000000e+01 -5.00000000000000e+01 -1.54769795291295e-01  2.00000000000000e+02 0.00000000000000e+00 0 0 -0.30585323423793
  -7.60000000000000e+01 -5.00000000000000e+01 -2.58440766841627e-01  2.00000000000000e+02 0.00000000000000e+00 0 0 -0.38278319031353
  -7.50000000000000e+01 -5.00000000000000e+01 -3.49676153136756e-01  2.00000000000000e+02 0.00000000000000e+00 0 0 -0.44418582838977
  -7.40000000000000e+01 -5.00000000000000e+01 -4.26470895881692e-01  2.00000000000000e+02 0.00000000000000e+00 0 0 -0.48909306127383
  -7.30000000000000e+01 -5.00000000000000e+01 -4.87373946662910e-01  2.00000000000000e+02 0.00000000000000e+00 0 0 -0.51712848162452
  -7.20000000000000e+01 -5.00000000000000e+01 -5.31508750627925e-01  2.00000000000000e+02 0.00000000000000e+00 0 0 -0.5285012941413
  -7.10000000000000e+01 -5.00000000000000e+01 -5.58573885689334e-01  2.00000000000000e+02 0.00000000000000e+00 0 0 -0.52397986272371
  -7.00000000000000e+01 -5.00000000000000e+01 -5.68825707930526e-01  2.00000000000000e+02 0.00000000000000e+00 0 0 -0.50484610459986
  -6.90000000000000e+01 -5.00000000000000e+01 -5.63045090322722e-01  2.00000000000000e+02 0.00000000000000e+00 0 0 -0.47283262599897
  -6.80000000000000e+01 -5.00000000000000e+01 -5.42490319090756e-01  2.00000000000000e+02 0.00000000000000e+00 0 0 -0.43004508551745
  -6.70000000000000e+01 -5.00000000000000e+01 -5.08838032257389e-01  2.00000000000000e+02 0.00000000000000e+00 0 0 -0.37887277142734
  -6.60000000000000e+01 -5.00000000000000e+01 -4.64113871676573e-01  2.00000000000000e+02 0.00000000000000e+00 0 0 -0.32189077059881
  -6.50000000000000e+01 -5.00000000000000e+01 -4.10614391219763e-01  2.00000000000000e+02 0.00000000000000e+00 0 0 -0.26175737611377
  -6.40000000000000e+01 -5.00000000000000e+01 -3.50821805747493e-01  2.00000000000000e+02 0.00000000000000e+00 0 0 -0.20111051902351
  -6.30000000000000e+01 -5.00000000000000e+01 -2.87313412503410e-01  2.00000000000000e+02 0.00000000000000e+00 0 0 -0.14246701266689
  -6.20000000000000e+01 -5.00000000000000e+01 -2.22667942983766e-01  2.00000000000000e+02 0.00000000000000e+00 0 0 -0.088128265916515
  -6.10000000000000e+01 -5.00000000000000e+01 -1.59371628509928e-01  2.00000000000000e+02 0.00000000000000e+00 0 0 -0.040095859812548
  -6.00000000000000e+01 -5.00000000000000e+01 -9.97272686017876e-02  2.00000000000000e+02 0.00000000000000e+00 0 0 8.3469938628872e-17
  -5.90000000000000e+01 -5.00000000000000e+01 -4.57699486920200e-02  2.00000000000000e+02 0.00000000000000e+00 0 0 0.030956630850822
  -5.80000000000000e+01 -5.00000000000000e+01 8.06848379843732e-04  2.00000000000000e+02 0.00000000000000e+00 0 0 0.052037673225635
  -5.70000000000000e+01 -5.00000000000000e+01 3.87112223692397e-02  2.00000000000000e+02 0.00000000000000e+00 0 0 0.062993240664158
  -5.60000000000000e+01 -5.00000000000000e+01 6.70959795779359e-02  2.00000000000000e+02 0.00000000000000e+00 0 0 0.06406080566185
  -5.50000000000000e+01 -5.00000000000000e+01 8.55828075897285e-02  2.00000000000000e+02 0.00000000000000e+00 0 0 0.055946917008748
  -5.40000000000000e+01 -5.00000000000000e+01 9.42664503905710e-02  2.00000000000000e+02 0.00000000000000e+00 0 0 0.039790547776875
  -5.30000000000000e+01 -5.00000000000000e+01 9.36989390865701e-02  2.00000000000000e+02 0.00000000000000e+00 0 0 0.017109546456089
  -5.20000000000000e+01 -5.00000000000000e+01 8.48549761638030e-02  2.00000000000000e+02 0.00000000000000e+00 0 0 -0.01026771747895
  -5.10000000000000e+01 -5.00000000000000e+01 6.90804497821058e-02  2.00000000000000e+02 0.00000000000000e+00 0 0 -0.040282880074361
  -5.00000000000000e+01 -5.00000000000000e+01 4.80267090130125e-02  2.00000000000000e+02 0.00000000000000e+00 0 0 -0.070737201667703
  -4.90000000000000e+01 -5.00000000000000e+01 2.35736482918271e-02  2.00000000000000e+02 0.00000000000000e+00 0 0 -0.099386863630107
  -4.80000000000000e+01 -5.00000000000000e+01 -2.25514227871940e-03  2.00000000000000e+02 0.00000000000000e+00 0 0 -0.12404031807479
  -4.70000000000000e+01 -5.00000000000000e+01 -2.73818507947945e-02  2.00000000000000e+02 0.00000000000000e+00 0 0 -0.14265398614604
  -4.60000000000000e+01 -5.00000000000000e+01 -4.97652727791099e-02  2.00000000000000e+02 0.00000000000000e+00 0 0 -0.15342265534734
  -4.50000000000000e+01 -5.00000000000000e+01 -6.74898136321032e-02  2.00000000000000e+02 0.00000000000000e+00 0 0 -0.15486111356869
  -4.40000000000000e+01 -5.00000000000000e+01 -7.88495888874449e-02  2.00000000000000e+02 0.00000000000000e+00 0 0 -0.14587387046229
  -4.30000000000000e+01 -5.00000000000000e+01 -8.24246751376622e-02  2.00000000000000e+02 0.00000000000000e+00 0 0 -0.12581024455519
  -4.20000000000000e+01 -5.00000000000000e+01 -7.71467376414952e-02  2.00000000000000e+02 0.00000000000000e+00 0 0 -0.094502621856098
  -4.10000000000000e+01 -5.00000000000000e+01 -6.23515123300633e-02  2.00000000000000e+02 0.00000000000000e+00 0 0 -0.052286300038984
  -4.00000000000000e+01 -5.00000000000000e+01 -3.78159806880359e-02  2.00000000000000e+02 0.00000000000000e+00 0 0 8.8749121697789e-17
  -3.90000000000000e+01 -5.00000000000000e+01 -3.77856140044017e-03  2.00000000000000e+02 0.00000000000000e+00 0 0 0.061033170019303
  -3.80000000000000e+01 -5.00000000000000e+01 3.90587531749622e-02  2.00000000000000e+02 0.00000000000000e+00 0 0 0.12904379848071
  -3.70000000000000e+01 -5.00000000000000e+01 8.95466923208015e-02  2.00000000000000e+02 0.00000000000000e+00 0 0 0.20187210420051
  -3.60000000000000e+01 -5.00000000000000e+01 1.46123067910980e-01  2.00000000000000e+02 0.00000000000000e+00 0 0 0.27703986144846
  -3.50000000000000e+01 -5.00000000000000e+01 2.06864095452405e-01  2.00000000000000e+02 0.00000000000000e+00 0 0 0.35183586208634
  -3.40000000000000e+01 -5.00000000000000e+01 2.69550881840434e-01  2.00000000000000e+02 0.00000000000000e+00 0 0 0.42341194883979
  -3.30000000000000e+01 -5.00000000000000e+01 3.31748688305921e-01  2.00000000000000e+02 0.00000000000000e+00 0 0 0.4888862455342
  -3.20000000000000e+01 -5.00000000000000e+01 3.90896092870728e-01  2.00000000000000e+02 0.00000000000000e+00 0 0 0.54544991997972
  -3.10000000000000e+01 -5.00000000000000e+01 4.44400817274339e-01  2.00000000000000e+02 0.00000000000000e+00 0 0 0.59047365391672
  -3.00000000000000e+01 -5.00000000000000e+01 4.89738749562734e-01  2.00000000000000e+02 0.00000000000000e+00 0 0 0.62160996827066
  -2.90000000000000e+01 -5.00000000000000e+01 5.24552580853882e-01  2.00000000000000e+02 0.00000000000000e+00 0 0 0.63688766241517
  -2.80000000000000e+01 -5.00000000000000e+01 5.46746477773680e-01  2.00000000000000e+02 0.00000000000000e+00 0 0 0.63479486990115
  -2.70000000000000e+01 -5.00000000000000e+01 5.54573326828954e-01  2.00000000000000e+02 0.00000000000000e+00 0 0 0.61434760217766
  -2.60000000000000e+01 -5.00000000000000e+01 5.46711311523367e-01  2.00000000000000e+02 0.00000000000000e+00 0 0 0.57514113378315
  -2.50000000000000e+01 -5.00000000000000e+01 5.22326915504275e-01  2.00000000000000e+02 0.00000000000000e+00 0 0 0.51738216089939
  -2.40000000000000e+01 -5.00000000000000e+01 4.81121881261429e-01  2.00000000000000e+02 0.00000000000000e+00 0 0 0.44190032017801
  -2.30000000000000e+01 -5.00000000000000e+01 4.23362184924524e-01  2.00000000000000e+02 0.00000000000000e+00 0 0 0.35013836377067
  -2.20000000000000e+01 -5.00000000000000e+01 3.49887698464938e-01  2.00000000000000e+02 0.00000000000000e+00 0 0 0.24412102495687
  -2.10000000000000e+01 -5.00000000000000e+01 2.62101880046929e-01  2.00000000000000e+02 0.00000000000000e+00 0 0 0.1264033510006
  -2.00000000000000e+01 -5.00000000000000e+01 1.61941535787540e-01  2.00000000000000e+02 0.00000000000000e+00 0 0 -1.0107112380543e-16
  -1.90000000000000e+01 -5.00000000000000e+01 5.18274038380657e-02  2.00000000000000e+02 0.00000000000000e+00 0 0 -0.13170232866636
  -1.80000000000000e+01 -5.00000000000000e+01 -6.54030034030956e-02  2.00000000000000e+02 0.00000000000000e+00 0 0 -0.26504655876435
  -1.70000000000000e+01 -5.00000000000000e+01 -1.86578226913351e-01  2.00000000000000e+02 0.00000000000000e+00 0 0 -0.39621771517104
  -1.60000000000000e+01 -5.00000000000000e+01 -3.08288721642121e-01  2.00000000000000e+02 0.00000000000000e+00 0 0 -0.52136253446796
  -1.50000000000000e+01 -5.00000000000000e+01 -4.26992638801010e-01  2.00000000000000e+02 0.00000000000000e+00 0 0 -0.63671225217336
  -1.40000000000000e+01 -5.00000000000000e+01 -5.39128049874471e-01  2.00000000000000e+02 0.00000000000000e+00 0 0 -0.73870447008847
  -1.30000000000000e+01 -5.00000000000000e+01 -6.41227881174349e-01  2.00000000000000e+02 0.00000000000000e+00 0 0 -0.8241000066138
  -1.20000000000000e+01 -5.00000000000000e+01 -7.30033702358783e-01  2.00000000000000e+02 0.00000000000000e+00 0 0 -0.89009077273884
  -1.10000000000000e+01 -5.00000000000000e+01 -8.02604517454589e-01  2.00000000000000e+02 0.00000000000000e+00 0 0 -0.93439499241229
  -1.00000000000000e+01 -5.00000000000000e+01 -8.56416843383215e-01  2.00000000000000e+02 0.00000000000000e+00 0 0 -0.95533648912561
  -9.00000000000000e+00 -5.00000000000000e+01 -8.89452625356550e-01  2.00000000000000e+02 0.00000000000000e+00 0 0 -0.95190527734551
  -8.00000000000000e+00 -5.00000000000000e+01 -9.00271922856244e-01  2.00000000000000e+02 0.00000000000000e+00 0 0 -0.92379731050796
  -7.00000000000000e+00 -5.00000000000000e+01 -8.88067791861298e-01  2.00000000000000e+02 0.00000000000000e+00 0 0 -0.87143192587713
  -6.00000000000000e+00 -5.00000000000000e+01 -8.52701372065495e-01  2.00000000000000e+02 0.00000000000000e+00 0 0 -0.7959462672742
  -5.00000000000000e+00 -5.00000000000000e+01 -7.94715842089750e-01  2.00000000000000e+02 0.00000000000000e+00 0 0 -0.69916673424971
  -4.00000000000000e+00 -5.00000000000000e+01 -7.15328608583907e-01  2.00000000000000e+02 0.00000000000000e+00 0 0 -0.58355827450351
  -3.00000000000000e+00 -5.00000000000000e+01 -6.16401822376681e-01  2.00000000000000e+02 0.00000000000000e+00 0 0 -0.45215307897708
  -2.00000000000000e+00 -5.00000000000000e+01 -5.00392041463209e-01  2.00000000000000e+02 0.00000000000000e+00 0 0 -0.30846093063423
  -1.00000000000000e+00 -5.00000000000000e+01 -3.70280561736365e-01  2.00000000000000e+02 0.00000000000000e+00 0 0 -0.15636407481047
  0.00000000000000e+00 -5.00000000000000e+01 -2.29486588034712e-01  2.00000000000000e+02 0.00000000000000e+00 0 0 0
  -1.00000000000000e+02 -3.75000000000000e+01 -2.28975980872423e-01  2.00000000000000e+02 0.00000000000000e+00 0 0 6.0617555078669e-16
  -9.90000000000000e+01 -3.75000000000000e+01 -8.80786016947018e-02  2.00000000000000e+02 0.00000000000000e+00 0 0 0.15413707914889
  -9.80000000000000e+01 -3.75000000000000e+01 5.64242166907554e-02  2.00000000000000e+02 0.00000000000000e+00 0 0 0.30275906760081
  -9.70000000000000e+01 -3.75000000000000e+01 2.00501941947997e-01  2.00000000000000e+02 0.00000000000000e+00 0 0 0.44186989363959
  -9.60000000000000e+01 -3.75000000000000e+01 3.40097527144513e-01  2.00000000000000e+02 0.00000000000000e+00 0 0 0.56778839384715
  -9.50000000000000e+01 -3.75000000000000e+01 4.71258081349501e-01  2.00000000000000e+02 0.00000000000000e+00 0 0 0.67725785060772
  -9.40000000000000e+01 -3.75000000000000e+01 5.90264262076989e-01  2.00000000000000e+02 0.00000000000000e+00 0 0 0.76754129717212
  -9.30000000000000e+01 -3.75000000000000e+01 6.93753840094706e-01  2.00000000000000e+02 0.00000000000000e+00 0 0 0.83649956028168
  -9.20000000000000e+01 -3.75000000000000e+01 7.78834883854967e-01  2.00000000000000e+02 0.00000000000000e+00 0 0 0.88264959864029
  -9.10000000000000e+01 -3.75000000000000e+01 8.43184168406060e-01  2.00000000000000e+02 0.00000000000000e+00 0 0 0.90520136447709
  -9.00000000000000e+01 -3.75000000000000e+01 8.85126752002224e-01  2.00000000000000e+02 0.00000000000000e+00 0 0 0.90407214201706
  -8.90000000000000e+01 -3.75000000000000e+01 9.03693198787265e-01  2.00000000000000e+02 0.00000000000000e+00 0 0 0.87987807588654
  -8.80000000000000e+01 -3.75000000000000e+01 8.98651665775196e-01  2.00000000000000e+02 0.00000000000000e+00 0 0 0.83390336826365
  -8.70000000000000e+01 -3.75000000000000e+01 8.70513011787615e-01  2.00000000000000e+02 0.00000000000000e+00 0 0 0.76804836970308
  -8.60000000000000e+01 -3.75000000000000e+01 8.20508202314900e-01  2.00000000000000e+02 0.00000000000000e+00 0 0 0.68475848951917
  -8.50000000000000e+01 -3.75000000000000e+01 7.50538533750935e-01  2.00000000000000e+02 0.00000000000000e+00 0 0 0.58693648351269
  -8.40000000000000e+01 -3.75000000000000e+01 6.63100517402111e-01  2.00000000000000e+02 0.00000000000000e+00 0 0 0.47784121822844
  -8.30000000000000e+01 -3.75000000000000e+01 5.61188562612931e-01  2.00000000000000e+02 0.00000000000000e+00 0 0 0.36097644356272
  -8.20000000000000e+01 -3.75000000000000e+01 4.48179780088900e-01  2.00000000000000e+02 0.00000000000000e+00 0 0 0.23997341493836
  -8.10000000000000e+01 -3.75000000000000e+01 3.27706187912647e-01  2.00000000000000e+02 0.00000000000000e+00 0 0 0.11847138226643
  -8.00000000000000e+01 -3.75000000000000e+01 2.03520249462690e-01  2.00000000000000e+02 0.00000000000000e+00 0 0 -3.612068117282e-16
  -7.90000000000000e+01 -3.75000000000000e+01 7.93599327166908e-02  2.00000000000000e+02 0.00000000000000e+00 0 0 -0.11213238993689
  -7.80000000000000e+01 -3.75000000000000e+01 -4.11806819926937e-02  2.00000000000000e+02 0.00000000000000e+00 0 0 -0.21494088854101
  -7.70000000000000e+01 -3.75000000000000e+01 -1.54769795291295e-01  2.00000000000000e+02 0.00000000000000e+00 0 0 -0.30585323423793
  -7.60000000000000e+01 -3.75000000000000e+01 -2.58440766841627e-01  2.00000000000000e+02 0.00000000000000e+00 0 0 -0.38278319031353
  -7.50000000000000e+01 -3.75000000000000e+01 -3.49676153136756e-01  2.00000000000000e+02 0.00000000000000e+00 0 0 -0.44418582838977
  -7.40000000000000e+01 -3.75000000000000e+01 -4.26470895881692e-01  2.00000000000000e+02 0.00000000000000e+00 0 0 -0.48909306127383
  -7.30000000000000e+01 -3.75000000000000e+01 -4.87373946662910e-01  2.00000000000000e+02 0.00000000000000e+00 0 0 -0.51712848162452
  -7.20000000000000e+01 -3.75000000000000e+01 -5.31508750627925e-01  2.00000000000000e+02 0.00000000000000e+00 0 0 -0.5285012941413
  -7.10000000000000e+01 -3.75000000000000e+01 -5.58573885689334e-01  2.00000000000000e+02 0.00000000000000e+00 0 0 -0.52397986272371
  -7.00000000000000e+01 -3.75000000000000e+01 -5.68825707930526e-01  2.00000000000000e+02 0.00000000000000e+00 0 0 -0.50484610459986
  -6.90000000000000e+01 -3.75000000000000e+01 -5.63045090322722e-01  2.00000000000000e+02 0.00000000000000e+00 0 0 -0.47283262599897
  -6.80000000000000e+01 -3.75000000000000e+01 -5.42490319090756e-01  2.00000000000000e+02 0.00000000000000e+00 0 0 -0.43004508551745
  -6.70000000000000e+01 -3.75000000000000e+01 -5.08838032257389e-01  2.00000000000000e+02 0.00000000000000e+00 0 0 -0.37887277142734
  -6.60000000000000e+01 -3.75000000000000e+01 -4.64113871676573e-01  2.00000000000000e+02 0.00000000000000e+00 0 0 -0.32189077059881
  -6.50000000000000e+01 -3.75000000000000e+01 -4.10614391219763e-01  2.00000000000000e+02 0.00000000000000e+00 0 0 -0.26175737611377
  -6.40000000000000e+01 -3.75000000000000e+01 -3.50821805747493e-01  2.00000000000000e+02 0.00000000000000e+00 0 0 -0.20111051902351
  -6.30000000000000e+01 -3.75000000000000e+01 -2.87313412503410e-01  2.00000000000000e+02 0.00000000000000e+00 0 0 -0.14246701266689
  -6.20000000000000e+01 -3.75000000000000e+01 -2.22667942983766e-01  2.00000000000000e+02 0.00000000000000e+00 0 0 -0.088128265916515
  -6.10000000000000e+01 -3.75000000000000e+01 -1.59371628509928e-01  2.00000000000000e+02 0.00000000000000e+00 0 0 -0.040095859812548
  -6.00000000000000e+01 -3.75000000000000e+01 -9.97272686017876e-02  2.00000000000000e+02 0.00000000000000e+00 0 0 8.3469938628872e-17
  -5.90000000000000e+01 -3.75000000000000e+01 -4.57699486920200e-02  2.00000000000000e+02 0.00000000000000e+00 0 0 0.030956630850822
  -5.80000000000000e+01 -3.75000000000000e+01 8.06848379843732e-04  2.00000000000000e+02 0.00000000000000e+00 0 0 0.052037673225635
  -5.70000000000000e+01 -3.75000000000000e+01 3.87112223692397e-02  2.00000000000000e+02 0.00000000000000e+00 0 0 0.062993240664158
  -5.60000000000000e+01 -3.75000000000000e+01 6.70959795779359e-02  2.00000000000000e+02 0.00000000000000e+00 0 0 0.06406080566185
  -5.50000000000000e+01 -3.75000000000000e+01 8.55828075897285e-02  2.00000000000000e+02 0.00000000000000e+00 0 0 0.055946917008748
  -5.40000000000000e+01 -3.75000000000000e+01 9.42664503905710e-02  2.00000000000000e+02 0.00000000000000e+00 0 0 0.039790547776875
  -5.30000000000000e+01 -3.75000000000000e+01 9.36989390865701e-02  2.00000000000000e+02 0.00000000000000e+00 0 0 0.017109546456089
  -5.20000000000000e+01 -3.75000000000000e+01 8.48549761638030e-02  2.00000000000000e+02 0.00000000000000e+00 0 0 -0.01026771747895
  -5.10000000000000e+01 -3.75000000000000e+01 6.90804497821058e-02  2.00000000000000e+02 0.00000000000000e+00 0 0 -0.040282880074361
  -5.00000000000000e+01 -3.75000000000000e+01 4.80267090130125e-02  2.00000000000000e+02 0.00000000000000e+00 0 0 -0.070737201667703
  -4.90000000000000e+01 -3.75000000000000e+01 2.35736482918271e-02  2.00000000000000e+02 0.00000000000000e+00 0 0 -0.099386863630107
  -4.80000000000000e+01 -3.75000000000000e+01 -2.25514227871940e-03  2.00000000000000e+02 0.00000000000000e+00 0 0 -0.12404031807479
  -4.70000000000000e+01 -3.75000000000000e+01 -2.73818507947945e-02  2.00000000000000e+02 0.00000000000000e+00 0 0 -0.14265398614604
  -4.60000000000000e+01 -3.75000000000000e+01 -4.97652727791099e-02  2.00000000000000e+02 0.00000000000000e+00 0 0 -0.15342265534734
  -4.50000000000000e+01 -3.75000000000000e+01 -6.74898136321032e-02  2.00000000000000e+02 0.00000000000000e+00 0 0 -0.15486111356869
  -4.40000000000000e+01 -3.75000000000000e+01 -7.88495888874449e-02  2.00000000000000e+02 0.00000000000000e+00 0 0 -0.14587387046229
  -4.30000000000000e+01 -3.75000000000000e+01 -8.24246751376622e-02  2.00000000000000e+02 0.00000000000000e+00 0 0 -0.12581024455519
  -4.20000000000000e+01 -3.75000000000000e+01 -7.71467376414952e-02  2.00000000000000e+02 0.00000000000000e+00 0 0 -0.094502621856098
  -4.10000000000000e+01 -3.75000000000000e+01 -6.23515123300633e-02  2.00000000000000e+02 0.00000000000000e+00 0 0 -0.052286300038984
  -4.00000000000000e+01 -3.75000000000000e+01 -3.78159806880359e-02  2.00000000000000e+02 0.00000000000000e+00 0 0 8.8749121697789e-17
  -3.90000000000000e+01 -3.75000000000000e+01 -3.77856140044017e-03  2.00000000000000e+02 0.00000000000000e+00 0 0 0.061033170019303
  -3.80000000000000e+01 -3.75000000000000e+01 3.90587531749622e-02  2.00000000000000e+02 0.00000000000000e+00 0 0 0.12904379848071
  -3.70000000000000e+01 -3.75000000000000e+01 8.95466923208015e-02  2.00000000000000e+02 0.00000000000000e+00 0 0 0.20187210420051
  -3.60000000000000e+01 -3.75000000000000e+01 1.46123067910980e-01  2.00000000000000e+02 0.00000000000000e+00 0 0 0.27703986144846
  -3.50000000000000e+01 -3.75000000000000e+01 2.06864095452405e-01  2.00000000000000e+02 0.00000000000000e+00 0 0 0.35183586208634
  -3.40000000000000e+01 -3.75000000000000e+01 2.69550881840434e-01  2.00000000000000e+02 0.00000000000000e+00 0 0 0.42341194883979
  -3.30000000000000e+01 -3.75000000000000e+01 3.31748688305921e-01  2.00000000000000e+02 0.00000000000000e+00 0 0 0.4888862455342
  -3.20000000000000e+01 -3.75000000000000e+01 3.90896092870728e-01  2.00000000000000e+02 0.00000000000000e+00 0 0 0.54544991997972
  -3.10000000000000e+01 -3.75000000000000e+01 4.44400817274339e-01  2.00000000000000e+02 0.00000000000000e+00 0 0 0.59047365391672
  -3.00000000000000e+01 -3.75000000000000e+01 4.89738749562734e-01  2.00000000000000e+02 0.00000000000000e+00 0 0 0.62160996827066
  -2.90000000000000e+01 -3.75000000000000e+01 5.24552580853882e-01  2.00000000000000e+02 0.00000000000000e+00 0 0 0.63688766241517
  -2.80000000000000e+01 -3.75000000000000e+01 5.46746477773680e-01  2.00000000000000e+02 0.00000000000000e+00 0 0 0.63479486990115
  -2.70000000000000e+01 -3.75000000000000e+01 5.54573326828954e-01  2.00000000000000e+02 0.00000000000000e+00 0 0 0.61434760217766
  -2.60000000000000e+01 -3.75000000000000e+01 5.46711311523367e-01  2.00000000000000e+02 0.00000000000000e+00 0 0 0.57514113378315
  -2.50000000000000e+01 -3.75000000000000e+01 5.22326915504275e-01  2.00000000000000e+02 0.00000000000000e+00 0 0 0.51738216089939
  -2.40000000000000e+01 -3.75000000000000e+01 4.81121881261429e-01  2.00000000000000e+02 0.00000000000000e+00 0 0 0.44190032017801
  -2.30000000000000e+01 -3.75000000000000e+01 4.23362184924524e-01  2.00000000000000e+02 0.00000000000000e+00 0 0 0.35013836377067
  -2.20000000000000e+01 -3.75000000000000e+01 3.49887698464938e-01  2.00000000000000e+02 0.00000000000000e+00 0 0 0.24412102495687
  -2.10000000000000e+01 -3.75000000000000e+01 2.62101880046929e-01  2.00000000000000e+02 0.00000000000000e+00 0 0 0.1264033510006
  -2.00000000000000e+01 -3.75000000000000e+01 1.61941535787540e-01  2.00000000000000e+02 0.00000000000000e+00 0 0 -1.0107112380543e-16
  -1.90000000000000e+01 -3.75000000000000e+01 5.18274038380657e-02  2.00000000000000e+02 0.00000000000000e+00 0 0 -0.13170232866636
  -1.80000000000000e+01 -3.75000000000000e+01 -6.54030034030956e-02  2.00000000000000e+02 0.00000000000000e+00 0 0 -0.26504655876435
  -1.70000000000000e+01 -3.75000000000000e+01 -1.86578226913351e-01  2.00000000000000e+02 0.00000000000000e+00 0 0 -0.39621771517104
  -1.60000000000000e+01 -3.75000000000000e+01 -3.08288721642121e-01  2.00000000000000e+02 0.00000000000000e+00 0 0 -0.52136253446796
  -1.50000000000000e+01 -3.75000000000000e+01 -4.26992638801010e-01  2.00000000000000e+02 0.00000000000000e+00 0 0 -0.63671225217336
  -1.40000000000000e+01 -3.75000000000000e+01 -5.39128049874471e-01  2.00000000000000e+02 0.00000000000000e+00 0 0 -0.73870447008847
  -1.30000000000000e+01 -3.75000000000000e+01 -6.41227881174349e-01  2.00000000000000e+02 0.00000000000000e+00 0 0 -0.8241000066138
  -1.20000000000000e+01 -3.75000000000000e+01 -7.30033702358783e-01  2.00000000000000e+02 0.00000000000000e+00 0 0 -0.89009077273884
  -1.10000000000000e+01 -3.75000000000000e+01 -8.02604517454589e-01  2.00000000000000e+02 0.00000000000000e+00 0 0 -0.93439499241229
  -1.00000000000000e+01 -3.75000000000000e+01 -8.56416843383215e-01  2.00000000000000e+02 0.00000000000000e+00 0 0 -0.95533648912561
  -9.00000000000000e+00 -3.75000000000000e+01 -8.89452625356550e-01  2.00000000000000e+02 0.00000000000000e+00 0 0 -0.95190527734551
  -8.00000000000000e+00 -3.75000000000000e+01 -9.00271922856244e-01  2.00000000000000e+02 0.00000000000000e+00 0 0 -0.92379731050796
  -7.00000000000000e+00 -3.75000000000000e+01 -8.88067791861298e-01  2.00000000000000e+02 0.00000000000000e+00 0 0 -0.87143192587713
  -6.00000000000000e+00 -3.75000000000000e+01 -8.52701372065495e-01  2.00000000000000e+02 0.00000000000000e+00 0 0 -0.7959462672742
  -5.00000000000000e+00 -3.75000000000000e+01 -7.94715842089750e-01  2.00000000000000e+02 0.00000000000000e+00 0 0 -0.69916673424971
  -4.00000000000000e+00 -3.75000000000000e+01 -7.15328608583907e-01  2.00000000000000e+02 0.00000000000000e+00 0 0 -0.58355827450351
  -3.00000000000000e+00 -3.75000000000000e+01 -6.16401822376681e-01  2.00000000000000e+02 0.00000000000000e+00 0 0 -0.45215307897708
  -2.00000000000000e+00 -3.75000000000000e+01 -5.00392041463209e-01  2.00000000000000e+02 0.00000000000000e+00 0 0 -0.30846093063423
  -1.00000000000000e+00 -3.75000000000000e+01 -3.70280561736365e-01  2.00000000000000e+02 0.00000000000000e+00 0 0 -0.15636407481047
  0.00000000000000e+00 -3.75000000000000e+01 -2.29486588034712e-01  2.00000000000000e+02 0.00000000000000e+00 0 0 0
  -1.00000000000000e+02 -2.50000000000000e+01 -2.28975980872423e-01  2.00000000000000e+02 0.00000000000000e+00 0 0 6.0617555078669e-16
  -9.90000000000000e+01 -2.50000000000000e+01 -8.80786016947018e-02  2.00000000000000e+02 0.00000000000000e+00 0 0 0.15413707914889
  -9.80000000000000e+01 -2.50000000000000e+01 5.64242166907554e-02  2.00000000000000e+02 0.00000000000000e+00 0 0 0.30275906760081
  -9.70000000000000e+01 -2.50000000000000e+01 2.00501941947997e-01  2.00000000000000e+02 0.00000000000000e+00 0 0 0.44186989363959
  -9.60000000000000e+01 -2.50000000000000e+01 3.40097527144513e-01  2.00000000000000e+02 0.00000000000000e+00 0 0 0.56778839384715
  -9.50000000000000e+01 -2.50000000000000e+01 4.71258081349501e-01  2.00000000000000e+02 0.00000000000000e+00 0 0 0.67725785060772
  -9.40000000000000e+01 -2.50000000000000e+01 5.90264262076989e-01  2.00000000000000e+02 0.00000000000000e+00 0 0 0.76754129717212
  -9.30000000000000e+01 -2.50000000000000e+01 6.93753840094706e-01  2.00000000000000e+02 0.00000000000000e+00 0 0 0.83649956028168
  -9.20000000000000e+01 -2.50000000000000e+01 7.78834883854967e-01  2.00000000000000e+02 0.00000000000000e+00 0 0 0.88264959864029
  -9.10000000000000e+01 -2.50000000000000e+01 8.43184168406060e-01  2.00000000000000e+02 0.00000000000000e+00 0 0 0.90520136447709
  -9.00000000000000e+01 -2.50000000000000e+01 8.85126752002224e-01  2.00000000000000e+02 0.00000000000000e+00 0 0 0.90407214201706
  -8.90000000000000e+01 -2.50000000000000e+01 9.03693198787265e-01  2.00000000000000e+02 0.00000000000000e+00 0 0 0.87987807588654
  -8.80000000000000e+01 -2.50000000000000e+01 8.98651665775196e-01  2.00000000000000e+02 0.00000000000000e+00 0 0 0.83390336826365
  -8.70000000000000e+01 -2.50000000000000e+01 8.70513011787615e-01  2.00000000000000e+02 0.00000000000000e+00 0 0 0.76804836970308
  -8.60000000000000e+01 -2.50000000000000e+01 8.20508202314900e-01  2.00000000000000e+02 0.00000000000000e+00 0 0 0.68475848951917
  -8.50000000000000e+01 -2.50000000000000e+01 7.50538533750935e-01  2.00000000000000e+02 0.00000000000000e+00 0 0 0.58693648351269
  -8.40000000000000e+01 -2.50000000000000e+01 6.63100517402111e-01  2.00000000000000e+02 0.00000000000000e+00 0 0 0.47784121822844
  -8.30000000000000e+01 -2.50000000000000e+01 5.61188562612931e-01  2.00000000000000e+02 0.00000000000000e+00 0 0 0.36097644356272
  -8.20000000000000e+01 -2.50000000000000e+01 4.48179780088900e-01  2.00000000000000e+02 0.00000000000000e+00 0 0 0.23997341493836
  -8.10000000000000e+01 -2.50000000000000e+01 3.27706187912647e-01  2.00000000000000e+02 0.00000000000000e+00 0 0 0.11847138226643
  -8.00000000000000e+01 -2.50000000000000e+01 2.03520249462690e-01  2.00000000000000e+02 0.00000000000000e+00 0 0 -3.612068117282e-16
  -7.90000000000000e+01 -2.50000000000000e+01 7.93599327166908e-02  2.00000000000000e+02 0.00000000000000e+00 0 0 -0.11213238993689
  -7.80000000000000e+01 -2.50000000000000e+01 -4.11806819926937e-02  2.00000000000000e+02 0.00000000000000e+00 0 0 -0.21494088854101