TITLE = "CFFC: 2D Advection Diffusion Equation Solution, Time Step/Iteration Level = 667, Time = 2"
VARIABLES = "x" \ 
"y" \ 
"u" \ 
"Vx" \ 
"Vy" \ 
"k" \ 
"s" \ 
"ExactSoln" \ 
ZONE T =  "Block Number = 0" \ 
I = 104 \ 
J = 6 \ 
F = POINT 
  -1.01500000000000e+02 -6.87500000000000e+01 -4.26757672552512e-01  2.00000000000000e+02 0.00000000000000e+00 0 0 0
  -1.00500000000000e+02 -6.87500000000000e+01 -2.98025219470357e-01  2.00000000000000e+02 0.00000000000000e+00 0 0 0
  -9.95000000000000e+01 -6.87500000000000e+01 -1.59926742273604e-01  2.00000000000000e+02 0.00000000000000e+00 0 0 0.0774991019136
  -9.85000000000000e+01 -6.87500000000000e+01 -1.62304611148790e-02  2.00000000000000e+02 0.00000000000000e+00 0 0 0.22939322880513
  -9.75000000000000e+01 -6.87500000000000e+01 1.29078894497320e-01  2.00000000000000e+02 0.00000000000000e+00 0 0 0.37374217430964
  -9.65000000000000e+01 -6.87500000000000e+01 2.71924989399588e-01  2.00000000000000e+02 0.00000000000000e+00 0 0 0.50669287159871
  -9.55000000000000e+01 -6.87500000000000e+01 4.08270064890310e-01  2.00000000000000e+02 0.00000000000000e+00 0 0 0.62476350023023
  -9.45000000000000e+01 -6.87500000000000e+01 5.34246097809498e-01  2.00000000000000e+02 0.00000000000000e+00 0 0 0.72494631922282
  -9.35000000000000e+01 -6.87500000000000e+01 6.46282426345196e-01  2.00000000000000e+02 0.00000000000000e+00 0 0 0.80479468502563
  -9.25000000000000e+01 -6.87500000000000e+01 7.41225253844822e-01  2.00000000000000e+02 0.00000000000000e+00 0 0 0.86249150710266
  -9.15000000000000e+01 -6.87500000000000e+01 8.16444513865592e-01  2.00000000000000e+02 0.00000000000000e+00 0 0 0.89689702519902
  -9.05000000000000e+01 -6.87500000000000e+01 8.69923822946868e-01  2.00000000000000e+02 0.00000000000000e+00 0 0 0.90757449314238
  -8.95000000000000e+01 -6.87500000000000e+01 9.00329681057773e-01  2.00000000000000e+02 0.00000000000000e+00 0 0 0.89479310013638
  -8.85000000000000e+01 -6.87500000000000e+01 9.07056716516798e-01  2.00000000000000e+02 0.00000000000000e+00 0 0 0.85950822628943
  -8.75000000000000e+01 -6.87500000000000e+01 8.90246615033484e-01  2.00000000000000e+02 0.00000000000000e+00 0 0 0.803319888328
  -8.65000000000000e+01 -6.87500000000000e+01 8.50779408541490e-01  2.00000000000000e+02 0.00000000000000e+00 0 0 0.72841095808764
  -8.55000000000000e+01 -6.87500000000000e+01 7.90236996087918e-01  2.00000000000000e+02 0.00000000000000e+00 0 0 0.63746740565477
  -8.45000000000000e+01 -6.87500000000000e+01 7.10840071413440e-01  2.00000000000000e+02 0.00000000000000e+00 0 0 0.53358340818223
  -8.35000000000000e+01 -6.87500000000000e+01 6.15360963390169e-01  2.00000000000000e+02 0.00000000000000e+00 0 0 0.42015465447764
  -8.25000000000000e+01 -6.87500000000000e+01 5.07016161834997e-01  2.00000000000000e+02 0.00000000000000e+00 0 0 0.30076354802791
  -8.15000000000000e+01 -6.87500000000000e+01 3.89343398342049e-01  2.00000000000000e+02 0.00000000000000e+00 0 0 0.17906025480951
  -8.05000000000000e+01 -6.87500000000000e+01 2.66068977482456e-01  2.00000000000000e+02 0.00000000000000e+00 0 0 0.058643649168944
  -7.95000000000000e+01 -6.87500000000000e+01 1.40971521442123e-01  2.00000000000000e+02 0.00000000000000e+00 0 0 -0.057053821878729
  -7.85000000000000e+01 -6.87500000000000e+01 1.77483439904703e-02  2.00000000000000e+02 0.00000000000000e+00 0 0 -0.16487350665248
  -7.75000000000000e+01 -6.87500000000000e+01 -1.00109707976611e-01  2.00000000000000e+02 0.00000000000000e+00 0 0 -0.26202660250534
  -7.65000000000000e+01 -6.87500000000000e+01 -2.09429882606678e-01  2.00000000000000e+02 0.00000000000000e+00 0 0 -0.34617577183108
  -7.55000000000000e+01 -6.87500000000000e+01 -3.07451651077202e-01  2.00000000000000e+02 0.00000000000000e+00 0 0 -0.41549972550975
  -7.45000000000000e+01 -6.87500000000000e+01 -3.91900655196847e-01  2.00000000000000e+02 0.00000000000000e+00 0 0 -0.4687387939158
  -7.35000000000000e+01 -6.87500000000000e+01 -4.61041136566977e-01  2.00000000000000e+02 0.00000000000000e+00 0 0 -0.5052201852777
  -7.25000000000000e+01 -6.87500000000000e+01 -5.13706756759178e-01  2.00000000000000e+02 0.00000000000000e+00 0 0 -0.52486235153866
  -7.15000000000000e+01 -6.87500000000000e+01 -5.49310744496896e-01  2.00000000000000e+02 0.00000000000000e+00 0 0 -0.52815861760003
  -7.05000000000000e+01 -6.87500000000000e+01 -5.67837026881886e-01  2.00000000000000e+02 0.00000000000000e+00 0 0 -0.51614095514948
  -6.95000000000000e+01 -6.87500000000000e+01 -5.69814388979174e-01  2.00000000000000e+02 0.00000000000000e+00 0 0 -0.49032547184793
  -6.85000000000000e+01 -6.87500000000000e+01 -5.56275791666180e-01  2.00000000000000e+02 0.00000000000000e+00 0 0 -0.45264181646085
  -6.75000000000000e+01 -6.87500000000000e+01 -5.28704846515153e-01  2.00000000000000e+02 0.00000000000000e+00 0 0 -0.40534924872692
  -6.65000000000000e+01 -6.87500000000000e+01 -4.88971217999368e-01  2.00000000000000e+02 0.00000000000000e+00 0 0 -0.35094257043925
  -6.55000000000000e+01 -6.87500000000000e+01 -4.39256525353457e-01  2.00000000000000e+02 0.00000000000000e+00 0 0 -0.29205144603482
  -6.45000000000000e+01 -6.87500000000000e+01 -3.81972257085700e-01  2.00000000000000e+02 0.00000000000000e+00 0 0 -0.23133684572074
  -6.35000000000000e+01 -6.87500000000000e+01 -3.19671354408884e-01  2.00000000000000e+02 0.00000000000000e+00 0 0 -0.17138841508624
  -6.25000000000000e+01 -6.87500000000000e+01 -2.54955470597520e-01  2.00000000000000e+02 0.00000000000000e+00 0 0 -0.11462651025698
  -6.15000000000000e+01 -6.87500000000000e+01 -1.90380415369597e-01  2.00000000000000e+02 0.00000000000000e+00 0 0 -0.063212439733427
  -6.05000000000000e+01 -6.87500000000000e+01 -1.28362841649862e-01  2.00000000000000e+02 0.00000000000000e+00 0 0 -0.01897013059058
  -5.95000000000000e+01 -6.87500000000000e+01 -7.10916955533459e-02  2.00000000000000e+02 0.00000000000000e+00 0 0 0.016678000412856
  -5.85000000000000e+01 -6.87500000000000e+01 -2.04482018303696e-02  2.00000000000000e+02 0.00000000000000e+00 0 0 0.042758725185548
  -5.75000000000000e+01 -6.87500000000000e+01 2.20618985903288e-02  2.00000000000000e+02 0.00000000000000e+00 0 0 0.058777599893241
  -5.65000000000000e+01 -6.87500000000000e+01 5.53605461483628e-02  2.00000000000000e+02 0.00000000000000e+00 0 0 0.064729515423363
  -5.55000000000000e+01 -6.87500000000000e+01 7.88314130076576e-02  2.00000000000000e+02 0.00000000000000e+00 0 0 0.061089942666546
  -5.45000000000000e+01 -6.87500000000000e+01 9.23342021718838e-02  2.00000000000000e+02 0.00000000000000e+00 0 0 0.048787322194218
  -5.35000000000000e+01 -6.87500000000000e+01 9.61986986092804e-02  2.00000000000000e+02 0.00000000000000e+00 0 0 0.029157739536278
  -5.25000000000000e+01 -6.87500000000000e+01 9.11991795638248e-02  2.00000000000000e+02 0.00000000000000e+00 0 0 0.0038836761975492
  -5.15000000000000e+01 -6.87500000000000e+01 7.85107727636968e-02  2.00000000000000e+02 0.00000000000000e+00 0 0 -0.025080790345487
  -5.05000000000000e+01 -6.87500000000000e+01 5.96501268003908e-02  2.00000000000000e+02 0.00000000000000e+00 0 0 -0.055595467945649
  -4.95000000000000e+01 -6.87500000000000e+01 3.64032912254820e-02  2.00000000000000e+02 0.00000000000000e+00 0 0 -0.085426950509411
  -4.85000000000000e+01 -6.87500000000000e+01 1.07440053580048e-02  2.00000000000000e+02 0.00000000000000e+00 0 0 -0.11234540244434
  -4.75000000000000e+01 -6.87500000000000e+01 -1.52542899156131e-02  2.00000000000000e+02 0.00000000000000e+00 0 0 -0.13422154542559
  -4.65000000000000e+01 -6.87500000000000e+01 -3.95094116741341e-02  2.00000000000000e+02 0.00000000000000e+00 0 0 -0.14912015374472
  -4.55000000000000e+01 -6.87500000000000e+01 -6.00211338842188e-02  2.00000000000000e+02 0.00000000000000e+00 0 0 -0.15538648605795
  -4.45000000000000e+01 -6.87500000000000e+01 -7.49584933800854e-02  2.00000000000000e+02 0.00000000000000e+00 0 0 -0.15172233255384
  -4.35000000000000e+01 -6.87500000000000e+01 -8.27406843948554e-02  2.00000000000000e+02 0.00000000000000e+00 0 0 -0.13724872857045
  -4.25000000000000e+01 -6.87500000000000e+01 -8.21086658804638e-02  2.00000000000000e+02 0.00000000000000e+00 0 0 -0.11155286537212
  -4.15000000000000e+01 -6.87500000000000e+01 -7.21848094024632e-02  2.00000000000000e+02 0.00000000000000e+00 0 0 -0.074717299174855
  -4.05000000000000e+01 -6.87500000000000e+01 -5.25182152575381e-02  2.00000000000000e+02 0.00000000000000e+00 0 0 -0.027330200377159
  -3.95000000000000e+01 -6.87500000000000e+01 -2.31137461183446e-02  2.00000000000000e+02 0.00000000000000e+00 0 0 0.029523926426312
  -3.85000000000000e+01 -6.87500000000000e+01 1.55566233177129e-02  2.00000000000000e+02 0.00000000000000e+00 0 0 0.094292909164941
  -3.75000000000000e+01 -6.87500000000000e+01 6.25608830325137e-02  2.00000000000000e+02 0.00000000000000e+00 0 0 0.16500410940374
  -3.65000000000000e+01 -6.87500000000000e+01 1.16532501609436e-01  2.00000000000000e+02 0.00000000000000e+00 0 0 0.23932862300158
  -3.55000000000000e+01 -6.87500000000000e+01 1.75713634212904e-01  2.00000000000000e+02 0.00000000000000e+00 0 0 0.31466031471876
  -3.45000000000000e+01 -6.87500000000000e+01 2.38014556692305e-01  2.00000000000000e+02 0.00000000000000e+00 0 0 0.38820696478988
  -3.35000000000000e+01 -6.87500000000000e+01 3.01087206988967e-01  2.00000000000000e+02 0.00000000000000e+00 0 0 0.4570903434986
  -3.25000000000000e+01 -6.87500000000000e+01 3.62410169623268e-01  2.00000000000000e+02 0.00000000000000e+00 0 0 0.51845167897343
  -3.15000000000000e+01 -6.87500000000000e+01 4.19382016118553e-01  2.00000000000000e+02 0.00000000000000e+00 0 0 0.56955875664446
  -3.05000000000000e+01 -6.87500000000000e+01 4.69419618430446e-01  2.00000000000000e+02 0.00000000000000e+00 0 0 0.60791079459571
  -2.95000000000000e+01 -6.87500000000000e+01 5.10057880695282e-01  2.00000000000000e+02 0.00000000000000e+00 0 0 0.63133728130501
  -2.85000000000000e+01 -6.87500000000000e+01 5.39047281012667e-01  2.00000000000000e+02 0.00000000000000e+00 0 0 0.6380871400782
  -2.75000000000000e+01 -6.87500000000000e+01 5.54445674534790e-01  2.00000000000000e+02 0.00000000000000e+00 0 0 0.62690489218283
  -2.65000000000000e+01 -6.87500000000000e+01 5.54700979123117e-01  2.00000000000000e+02 0.00000000000000e+00 0 0 0.5970909180119
  -2.55000000000000e+01 -6.87500000000000e+01 5.38721643923513e-01  2.00000000000000e+02 0.00000000000000e+00 0 0 0.54854344807341
  -2.45000000000000e+01 -6.87500000000000e+01 5.05932187084827e-01  2.00000000000000e+02 0.00000000000000e+00 0 0 0.48178053498845
  -2.35000000000000e+01 -6.87500000000000e+01 4.56311575437713e-01  2.00000000000000e+02 0.00000000000000e+00 0 0 0.39794094266676
  -2.25000000000000e+01 -6.87500000000000e+01 3.90412794410913e-01  2.00000000000000e+02 0.00000000000000e+00 0 0 0.29876361573065
  -2.15000000000000e+01 -6.87500000000000e+01 3.09362602518445e-01  2.00000000000000e+02 0.00000000000000e+00 0 0 0.18654613585117
  -2.05000000000000e+01 -6.87500000000000e+01 2.14841157574808e-01  2.00000000000000e+02 0.00000000000000e+00 0 0 0.064083306058353
  -1.95000000000000e+01 -6.87500000000000e+01 1.09041913999596e-01  2.00000000000000e+02 0.00000000000000e+00 0 0 -0.065412296356072
  -1.85000000000000e+01 -6.87500000000000e+01 -5.38710632419682e-03  2.00000000000000e+02 0.00000000000000e+00 0 0 -0.19840531752009
  -1.75000000000000e+01 -6.87500000000000e+01 -1.25418900482762e-01  2.00000000000000e+02 0.00000000000000e+00 0 0 -0.33114513608796
  -1.65000000000000e+01 -6.87500000000000e+01 -2.47737553344722e-01  2.00000000000000e+02 0.00000000000000e+00 0 0 -0.45978238788436
  -1.55000000000000e+01 -6.87500000000000e+01 -3.68839889940295e-01  2.00000000000000e+02 0.00000000000000e+00 0 0 -0.58049067133871
  -1.45000000000000e+01 -6.87500000000000e+01 -4.85145387662469e-01  2.00000000000000e+02 0.00000000000000e+00 0 0 -0.68958939018837
  -1.35000000000000e+01 -6.87500000000000e+01 -5.93110712087164e-01  2.00000000000000e+02 0.00000000000000e+00 0 0 -0.78366361897767
  -1.25000000000000e+01 -6.87500000000000e+01 -6.89345050262151e-01  2.00000000000000e+02 0.00000000000000e+00 0 0 -0.85967694673054
  -1.15000000000000e+01 -6.87500000000000e+01 -7.70722354455936e-01  2.00000000000000e+02 0.00000000000000e+00 0 0 -0.9150734629392
  -1.05000000000000e+01 -6.87500000000000e+01 -8.34486680453651e-01  2.00000000000000e+02 0.00000000000000e+00 0 0 -0.94786539099011
  -9.50000000000000e+00 -6.87500000000000e+01 -8.78347006313060e-01  2.00000000000000e+02 0.00000000000000e+00 0 0 -0.95670333605314
  -8.50000000000000e+00 -6.87500000000000e+01 -9.00558244400182e-01  2.00000000000000e+02 0.00000000000000e+00 0 0 -0.94092668180045
  -7.50000000000000e+00 -6.87500000000000e+01 -8.99985601312302e-01  2.00000000000000e+02 0.00000000000000e+00 0 0 -0.90059232393361
  -6.50000000000000e+00 -6.87500000000000e+01 -8.76149982410140e-01  2.00000000000000e+02 0.00000000000000e+00 0 0 -0.83648064620395
  -5.50000000000000e+00 -6.87500000000000e+01 -8.29252761720548e-01  2.00000000000000e+02 0.00000000000000e+00 0 0 -0.75007840198273
  -4.50000000000000e+00 -6.87500000000000e+01 -7.60178922458507e-01  2.00000000000000e+02 0.00000000000000e+00 0 0 -0.64353893563857
  -3.50000000000000e+00 -6.87500000000000e+01 -6.70478294708730e-01  2.00000000000000e+02 0.00000000000000e+00 0 0 -0.51962093665678
  -2.50000000000000e+00 -6.87500000000000e+01 -5.62325350043937e-01  2.00000000000000e+02 0.00000000000000e+00 0 0 -0.38160763963127
  -1.50000000000000e+00 -6.87500000000000e+01 -4.38458732881685e-01  2.00000000000000e+02 0.00000000000000e+00 0 0 -0.23320904030864
  -5.00000000000000e-01 -6.87500000000000e+01 -3.02102390590171e-01  2.00000000000000e+02 0.00000000000000e+00 0 0 -0.078450269245074
  5.00000000000000e-01 -6.87500000000000e+01 -1.56870785478322e-01  2.00000000000000e+02 0.00000000000000e+00 0 0 0.078450269245074
  1.50000000000000e+00 -6.87500000000000e+01 -6.66121064625356e-03  2.00000000000000e+02 0.00000000000000e+00 0 0 0.23320904030864
  -1.01500000000000e+02 -5.62500000000000e+01 -4.26757672552512e-01  2.00000000000000e+02 0.00000000000000e+00 0 0 0
  -1.00500000000000e+02 -5.62500000000000e+01 -2.98025219470357e-01  2.00000000000000e+02 0.00000000000000e+00 0 0 0
  -9.95000000000000e+01 -5.62500000000000e+01 -1.59926742273604e-01  2.00000000000000e+02 0.00000000000000e+00 0 0 0.0774991019136
  -9.85000000000000e+01 -5.62500000000000e+01 -1.62304611148792e-02  2.00000000000000e+02 0.00000000000000e+00 0 0 0.22939322880513
  -9.75000000000000e+01 -5.62500000000000e+01 1.29078894497320e-01  2.00000000000000e+02 0.00000000000000e+00 0 0 0.37374217430964
  -9.65000000000000e+01 -5.62500000000000e+01 2.71924989399588e-01  2.00000000000000e+02 0.00000000000000e+00 0 0 0.50669287159871
  -9.55000000000000e+01 -5.62500000000000e+01 4.08270064890310e-01  2.00000000000000e+02 0.00000000000000e+00 0 0 0.62476350023023
  -9.45000000000000e+01 -5.62500000000000e+01 5.34246097809498e-01  2.00000000000000e+02 0.00000000000000e+00 0 0 0.72494631922282
  -9.35000000000000e+01 -5.62500000000000e+01 6.46282426345196e-01  2.00000000000000e+02 0.00000000000000e+00 0 0 0.80479468502563
  -9.25000000000000e+01 -5.62500000000000e+01 7.41225253844822e-01  2.00000000000000e+02 0.00000000000000e+00 0 0 0.86249150710266
  -9.15000000000000e+01 -5.62500000000000e+01 8.16444513865592e-01  2.00000000000000e+02 0.00000000000000e+00 0 0 0.89689702519902
  -9.05000000000000e+01 -5.62500000000000e+01 8.69923822946869e-01  2.00000000000000e+02 0.00000000000000e+00 0 0 0.90757449314238
  -8.95000000000000e+01 -5.62500000000000e+01 9.00329681057773e-01  2.00000000000000e+02 0.00000000000000e+00 0 0 0.89479310013638
  -8.85000000000000e+01 -5.62500000000000e+01 9.07056716516798e-01  2.00000000000000e+02 0.00000000000000e+00 0 0 0.85950822628943
  -8.75000000000000e+01 -5.62500000000000e+01 8.90246615033484e-01  2.00000000000000e+02 0.00000000000000e+00 0 0 0.803319888328
  -8.65000000000000e+01 -5.62500000000000e+01 8.50779408541491e-01  2.00000000000000e+02 0.00000000000000e+00 0 0 0.72841095808764
  -8.55000000000000e+01 -5.62500000000000e+01 7.90236996087918e-01  2.00000000000000e+02 0.00000000000000e+00 0 0 0.63746740565477
  -8.45000000000000e+01 -5.62500000000000e+01 7.10840071413440e-01  2.00000000000000e+02 0.00000000000000e+00 0 0 0.53358340818223
  -8.35000000000000e+01 -5.62500000000000e+01 6.15360963390169e-01  2.00000000000000e+02 0.00000000000000e+00 0 0 0.42015465447764
  -8.25000000000000e+01 -5.62500000000000e+01 5.07016161834997e-01  2.00000000000000e+02 0.00000000000000e+00 0 0 0.30076354802791
  -8.15000000000000e+01 -5.62500000000000e+01 3.89343398342049e-01  2.00000000000000e+02 0.00000000000000e+00 0 0 0.17906025480951
  -8.05000000000000e+01 -5.62500000000000e+01 2.66068977482456e-01  2.00000000000000e+02 0.00000000000000e+00 0 0 0.058643649168944
  -7.95000000000000e+01 -5.62500000000000e+01 1.40971521442123e-01  2.00000000000000e+02 0.00000000000000e+00 0 0 -0.057053821878729
  -7.85000000000000e+01 -5.62500000000000e+01 1.77483439904701e-02  2.00000000000000e+02 0.00000000000000e+00 0 0 -0.16487350665248
  -7.75000000000000e+01 -5.62500000000000e+01 -1.00109707976611e-01  2.00000000000000e+02 0.00000000000000e+00 0 0 -0.26202660250534
  -7.65000000000000e+01 -5.62500000000000e+01 -2.09429882606678e-01  2.00000000000000e+02 0.00000000000000e+00 0 0 -0.34617577183108
  -7.55000000000000e+01 -5.62500000000000e+01 -3.07451651077203e-01  2.00000000000000e+02 0.00000000000000e+00 0 0 -0.41549972550975
  -7.45000000000000e+01 -5.62500000000000e+01 -3.91900655196847e-01  2.00000000000000e+02 0.00000000000000e+00 0 0 -0.4687387939158
  -7.35000000000000e+01 -5.62500000000000e+01 -4.61041136566977e-01  2.00000000000000e+02 0.00000000000000e+00 0 0 -0.5052201852777
  -7.25000000000000e+01 -5.62500000000000e+01 -5.13706756759178e-01  2.00000000000000e+02 0.00000000000000e+00 0 0 -0.52486235153866
  -7.15000000000000e+01 -5.62500000000000e+01 -5.49310744496897e-01  2.00000000000000e+02 0.00000000000000e+00 0 0 -0.52815861760003
  -7.05000000000000e+01 -5.62500000000000e+01 -5.67837026881886e-01  2.00000000000000e+02 0.00000000000000e+00 0 0 -0.51614095514948
  -6.95000000000000e+01 -5.62500000000000e+01 -5.69814388979175e-01  2.00000000000000e+02 0.00000000000000e+00 0 0 -0.49032547184793
  -6.85000000000000e+01 -5.62500000000000e+01 -5.56275791666180e-01  2.00000000000000e+02 0.00000000000000e+00 0 0 -0.45264181646085
  -6.75000000000000e+01 -5.62500000000000e+01 -5.28704846515153e-01  2.00000000000000e+02 0.00000000000000e+00 0 0 -0.40534924872692
  -6.65000000000000e+01 -5.62500000000000e+01 -4.88971217999369e-01  2.00000000000000e+02 0.00000000000000e+00 0 0 -0.35094257043925
  -6.55000000000000e+01 -5.62500000000000e+01 -4.39256525353457e-01  2.00000000000000e+02 0.00000000000000e+00 0 0 -0.29205144603482
  -6.45000000000000e+01 -5.62500000000000e+01 -3.81972257085701e-01  2.00000000000000e+02 0.00000000000000e+00 0 0 -0.23133684572074
  -6.35000000000000e+01 -5.62500000000000e+01 -3.19671354408884e-01  2.00000000000000e+02 0.00000000000000e+00 0 0 -0.17138841508624
  -6.25000000000000e+01 -5.62500000000000e+01 -2.54955470597520e-01  2.00000000000000e+02 0.00000000000000e+00 0 0 -0.11462651025698
  -6.15000000000000e+01 -5.62500000000000e+01 -1.90380415369597e-01  2.00000000000000e+02 0.00000000000000e+00 0 0 -0.063212439733427
  -6.05000000000000e+01 -5.62500000000000e+01 -1.28362841649862e-01  2.00000000000000e+02 0.00000000000000e+00 0 0 -0.01897013059058
  -5.95000000000000e+01 -5.62500000000000e+01 -7.10916955533461e-02  2.00000000000000e+02 0.00000000000000e+00 0 0 0.016678000412856
  -5.85000000000000e+01 -5.62500000000000e+01 -2.04482018303698e-02  2.00000000000000e+02 0.00000000000000e+00 0 0 0.042758725185548
  -5.75000000000000e+01 -5.62500000000000e+01 2.20618985903287e-02  2.00000000000000e+02 0.00000000000000e+00 0 0 0.058777599893241
  -5.65000000000000e+01 -5.62500000000000e+01 5.53605461483627e-02  2.00000000000000e+02 0.00000000000000e+00 0 0 0.064729515423363
  -5.55000000000000e+01 -5.62500000000000e+01 7.88314130076575e-02  2.00000000000000e+02 0.00000000000000e+00 0 0 0.061089942666546
  -5.45000000000000e+01 -5.62500000000000e+01 9.23342021718837e-02  2.00000000000000e+02 0.00000000000000e+00 0 0 0.048787322194218
  -5.35000000000000e+01 -5.62500000000000e+01 9.61986986092803e-02  2.00000000000000e+02 0.00000000000000e+00 0 0 0.029157739536278
  -5.25000000000000e+01 -5.62500000000000e+01 9.11991795638248e-02  2.00000000000000e+02 0.00000000000000e+00 0 0 0.0038836761975492
  -5.15000000000000e+01 -5.62500000000000e+01 7.85107727636968e-02  2.00000000000000e+02 0.00000000000000e+00 0 0 -0.025080790345487
  -5.05000000000000e+01 -5.62500000000000e+01 5.96501268003907e-02  2.00000000000000e+02 0.00000000000000e+00 0 0 -0.055595467945649
  -4.95000000000000e+01 -5.62500000000000e+01 3.64032912254820e-02  2.00000000000000e+02 0.00000000000000e+00 0 0 -0.085426950509411
  -4.85000000000000e+01 -5.62500000000000e+01 1.07440053580048e-02  2.00000000000000e+02 0.00000000000000e+00 0 0 -0.11234540244434
  -4.75000000000000e+01 -5.62500000000000e+01 -1.52542899156131e-02  2.00000000000000e+02 0.00000000000000e+00 0 0 -0.13422154542559
  -4.65000000000000e+01 -5.62500000000000e+01 -3.95094116741341e-02  2.00000000000000e+02 0.00000000000000e+00 0 0 -0.14912015374472
  -4.55000000000000e+01 -5.62500000000000e+01 -6.00211338842216e-02  2.00000000000000e+02 0.00000000000000e+00 0 0 -0.15538648605795
  -4.45000000000000e+01 -5.62500000000000e+01 -7.49584933800834e-02  2.00000000000000e+02 0.00000000000000e+00 0 0 -0.15172233255384
  -4.35000000000000e+01 -5.62500000000000e+01 -8.27406843948566e-02  2.00000000000000e+02 0.00000000000000e+00 0 0 -0.13724872857045
  -4.25000000000000e+01 -5.62500000000000e+01 -8.21086658804664e-02  2.00000000000000e+02 0.00000000000000e+00 0 0 -0.11155286537212
  -4.15000000000000e+01 -5.62500000000000e+01 -7.21848094024597e-02  2.00000000000000e+02 0.00000000000000e+00 0 0 -0.074717299174855
  -4.05000000000000e+01 -5.62500000000000e+01 -5.25182152575380e-02  2.00000000000000e+02 0.00000000000000e+00 0 0 -0.027330200377159
  -3.95000000000000e+01 -5.62500000000000e+01 -2.31137461183445e-02  2.00000000000000e+02 0.00000000000000e+00 0 0 0.029523926426312
  -3.85000000000000e+01 -5.62500000000000e+01 1.55566233177131e-02  2.00000000000000e+02 0.00000000000000e+00 0 0 0.094292909164941
  -3.75000000000000e+01 -5.62500000000000e+01 6.25608830325139e-02  2.00000000000000e+02 0.00000000000000e+00 0 0 0.16500410940374
  -3.65000000000000e+01 -5.62500000000000e+01 1.16532501609436e-01  2.00000000000000e+02 0.00000000000000e+00 0 0 0.23932862300158
  -3.55000000000000e+01 -5.62500000000000e+01 1.75713634212905e-01  2.00000000000000e+02 0.00000000000000e+00 0 0 0.31466031471876
  -3.45000000000000e+01 -5.62500000000000e+01 2.38014556692305e-01  2.00000000000000e+02 0.00000000000000e+00 0 0 0.38820696478988
  -3.35000000000000e+01 -5.62500000000000e+01 3.01087206988967e-01  2.00000000000000e+02 0.00000000000000e+00 0 0 0.4570903434986
  -3.25000000000000e+01 -5.62500000000000e+01 3.62410169623268e-01  2.00000000000000e+02 0.00000000000000e+00 0 0 0.51845167897343
  -3.15000000000000e+01 -5.62500000000000e+01 4.19382016118553e-01  2.00000000000000e+02 0.00000000000000e+00 0 0 0.56955875664446
  -3.05000000000000e+01 -5.62500000000000e+01 4.69419618430446e-01  2.00000000000000e+02 0.00000000000000e+00 0 0 0.60791079459571
  -2.95000000000000e+01 -5.62500000000000e+01 5.10057880695282e-01  2.00000000000000e+02 0.00000000000000e+00 0 0 0.63133728130501
  -2.85000000000000e+01 -5.62500000000000e+01 5.39047281012667e-01  2.00000000000000e+02 0.00000000000000e+00 0 0 0.6380871400782
  -2.75000000000000e+01 -5.62500000000000e+01 5.54445674534790e-01  2.00000000000000e+02 0.00000000000000e+00 0 0 0.62690489218283
  -2.65000000000000e+01 -5.62500000000000e+01 5.54700979123117e-01  2.00000000000000e+02 0.00000000000000e+00 0 0 0.5970909180119
  -2.55000000000000e+01 -5.62500000000000e+01 5.38721643923513e-01  2.00000000000000e+02 0.00000000000000e+00 0 0 0.54854344807341
  -2.45000000000000e+01 -5.62500000000000e+01 5.05932187084827e-01  2.00000000000000e+02 0.00000000000000e+00 0 0 0.48178053498845
  -2.35000000000000e+01 -5.62500000000000e+01 4.56311575437713e-01  2.00000000000000e+02 0.00000000000000e+00 0 0 0.39794094266676
  -2.25000000000000e+01 -5.62500000000000e+01 3.90412794410914e-01  2.00000000000000e+02 0.00000000000000e+00 0 0 0.29876361573065
  -2.15000000000000e+01 -5.62500000000000e+01 3.09362602518445e-01  2.00000000000000e+02 0.00000000000000e+00 0 0 0.18654613585117
  -2.05000000000000e+01 -5.62500000000000e+01 2.14841157574808e-01  2.00000000000000e+02 0.00000000000000e+00 0 0 0.064083306058353
  -1.95000000000000e+01 -5.62500000000000e+01 1.09041913999596e-01  2.00000000000000e+02 0.00000000000000e+00 0 0 -0.065412296356072
  -1.85000000000000e+01 -5.62500000000000e+01 -5.38710632419676e-03  2.00000000000000e+02 0.00000000000000e+00 0 0 -0.19840531752009
  -1.75000000000000e+01 -5.62500000000000e+01 -1.25418900482762e-01  2.00000000000000e+02 0.00000000000000e+00 0 0 -0.33114513608796
  -1.65000000000000e+01 -5.62500000000000e+01 -2.47737553344722e-01  2.00000000000000e+02 0.00000000000000e+00 0 0 -0.45978238788436
  -1.55000000000000e+01 -5.62500000000000e+01 -3.68839889940295e-01  2.00000000000000e+02 0.00000000000000e+00 0 0 -0.58049067133871
  -1.45000000000000e+01 -5.62500000000000e+01 -4.85145387662469e-01  2.00000000000000e+02 0.00000000000000e+00 0 0 -0.68958939018837
  -1.35000000000000e+01 -5.62500000000000e+01 -5.93110712087164e-01  2.00000000000000e+02 0.00000000000000e+00 0 0 -0.78366361897767
  -1.25000000000000e+01 -5.62500000000000e+01 -6.89345050262150e-01  2.00000000000000e+02 0.00000000000000e+00 0 0 -0.85967694673054
  -1.15000000000000e+01 -5.62500000000000e+01 -7.70722354455935e-01  2.00000000000000e+02 0.00000000000000e+00 0 0 -0.9150734629392
  -1.05000000000000e+01 -5.62500000000000e+01 -8.34486680453651e-01  2.00000000000000e+02 0.00000000000000e+00 0 0 -0.94786539099011
  -9.50000000000000e+00 -5.62500000000000e+01 -8.78347006313060e-01  2.00000000000000e+02 0.00000000000000e+00 0 0 -0.95670333605314
  -8.50000000000000e+00 -5.62500000000000e+01 -9.00558244400182e-01  2.00000000000000e+02 0.00000000000000e+00 0 0 -0.94092668180045
  -7.50000000000000e+00 -5.62500000000000e+01 -8.99985601312301e-01  2.00000000000000e+02 0.00000000000000e+00 0 0 -0.90059232393361
  -6.50000000000000e+00 -5.62500000000000e+01 -8.76149982410139e-01  2.00000000000000e+02 0.00000000000000e+00 0 0 -0.83648064620395
  -5.50000000000000e+00 -5.62500000000000e+01 -8.29252761720548e-01  2.00000000000000e+02 0.00000000000000e+00 0 0 -0.75007840198273
  -4.50000000000000e+00 -5.62500000000000e+01 -7.60178922458507e-01  2.00000000000000e+02 0.00000000000000e+00 0 0 -0.64353893563857
  -3.50000000000000e+00 -5.62500000000000e+01 -6.70478294708730e-01  2.00000000000000e+02 0.00000000000000e+00 0 0 -0.51962093665678
  -2.50000000000000e+00 -5.62500000000000e+01 -5.62325350043937e-01  2.00000000000000e+02 0.00000000000000e+00 0 0 -0.38160763963127
  -1.50000000000000e+00 -5.62500000000000e+01 -4.38458732881685e-01  2.00000000000000e+02 0.00000000000000e+00 0 0 -0.23320904030864
  -5.00000000000000e-01 -5.62500000000000e+01 -3.02102390590170e-01  2.00000000000000e+02 0.00000000000000e+00 0 0 -0.078450269245074
  5.00000000000000e-01 -5.62500000000000e+01 -1.56870785478322e-01  2.00000000000000e+02 0.00000000000000e+00 0 0 0.078450269245074
  1.50000000000000e+00 -5.62500000000000e+01 -6.66121064625337e-03  2.00000000000000e+02 0.00000000000000e+00 0 0 0.23320904030864
  -1.01500000000000e+02 -4.37500000000000e+01 -4.26757672552512e-01  2.00000000000000e+02 0.00000000000000e+00 0 0 0
  -1.00500000000000e+02 -4.37500000000000e+01 -2.98025219470357e-01  2.00000000000000e+02 0.00000000000000e+00 0 0 0
  -9.95000000000000e+01 -4.37500000000000e+01 -1.59926742273604e-01  2.00000000000000e+02 0.00000000000000e+00 0 0 0.0774991019136
  -9.85000000000000e+01 -4.37500000000000e+01 -1.62304611148793e-02  2.00000000000000e+02 0.00000000000000e+00 0 0 0.22939322880513
  -9.75000000000000e+01 -4.37500000000000e+01 1.29078894497320e-01  2.00000000000000e+02 0.00000000000000e+00 0 0 0.37374217430964
  -9.65000000000000e+01 -4.37500000000000e+01 2.71924989399588e-01  2.00000000000000e+02 0.00000000000000e+00 0 0 0.50669287159871
  -9.55000000000000e+01 -4.37500000000000e+01 4.08270064890310e-01  2.00000000000000e+02 0.00000000000000e+00 0 0 0.62476350023023
  -9.45000000000000e+01 -4.37500000000000e+01 5.34246097809498e-01  2.00000000000000e+02 0.00000000000000e+00 0 0 0.72494631922282
  -9.35000000000000e+01 -4.37500000000000e+01 6.46282426345196e-01  2.00000000000000e+02 0.00000000000000e+00 0 0 0.80479468502563
  -9.25000000000000e+01 -4.37500000000000e+01 7.41225253844822e-01  2.00000000000000e+02 0.00000000000000e+00 0 0 0.86249150710266
  -9.15000000000000e+01 -4.37500000000000e+01 8.16444513865592e-01  2.00000000000000e+02 0.00000000000000e+00 0 0 0.89689702519902
  -9.05000000000000e+01 -4.37500000000000e+01 8.69923822946869e-01  2.00000000000000e+02 0.00000000000000e+00 0 0 0.90757449314238
  -8.95000000000000e+01 -4.37500000000000e+01 9.00329681057773e-01  2.00000000000000e+02 0.00000000000000e+00 0 0 0.89479310013638
  -8.85000000000000e+01 -4.37500000000000e+01 9.07056716516798e-01  2.00000000000000e+02 0.00000000000000e+00 0 0 0.85950822628943
  -8.75000000000000e+01 -4.37500000000000e+01 8.90246615033484e-01  2.00000000000000e+02 0.00000000000000e+00 0 0 0.803319888328
  -8.65000000000000e+01 -4.37500000000000e+01 8.50779408541491e-01  2.00000000000000e+02 0.00000000000000e+00 0 0 0.72841095808764
  -8.55000000000000e+01 -4.37500000000000e+01 7.90236996087919e-01  2.00000000000000e+02 0.00000000000000e+00 0 0 0.63746740565477
  -8.45000000000000e+01 -4.37500000000000e+01 7.10840071413440e-01  2.00000000000000e+02 0.00000000000000e+00 0 0 0.53358340818223